 
             +---------------------------------------------------+
             |                                                   |
             |                   WANNIER90                       |
             |                                                   |
             +---------------------------------------------------+
             |                                                   |
             |        Welcome to the Maximally-Localized         |
             |        Generalized Wannier Functions code         |
             |            http://www.wannier.org                 |
             |                                                   |
             |                                                   |
             |  Wannier90 Developer Group:                       |
             |    Giovanni Pizzi    (EPFL)                       |
             |    Valerio Vitale    (Cambridge)                  |
             |    David Vanderbilt  (Rutgers University)         |
             |    Nicola Marzari    (EPFL)                       |
             |    Ivo Souza         (Universidad del Pais Vasco) |
             |    Arash A. Mostofi  (Imperial College London)    |
             |    Jonathan R. Yates (University of Oxford)       |
             |                                                   |
             |  For the full list of Wannier90 3.x authors,      |
             |  please check the code documentation and the      |
             |  README on the GitHub page of the code            |
             |                                                   |
             |                                                   |
             |  Please cite                                      |
             |                                                   |
             |  [ref] "Wannier90 as a community code:            |
             |        new features and applications",            |
             |        G. Pizzi et al., J. Phys. Cond. Matt. 32,  |
             |        165902 (2020).                             |
             |        http://doi.org/10.1088/1361-648X/ab51ff    |
             |                                                   |
             |  in any publications arising from the use of      |
             |  this code. For the method please cite            |
             |                                                   |
             |  [ref] "Maximally Localized Generalised Wannier   |
             |         Functions for Composite Energy Bands"     |
             |         N. Marzari and D. Vanderbilt              |
             |         Phys. Rev. B 56 12847 (1997)              |
             |                                                   |
             |  [ref] "Maximally Localized Wannier Functions     |
             |         for Entangled Energy Bands"               |
             |         I. Souza, N. Marzari and D. Vanderbilt    |
             |         Phys. Rev. B 65 035109 (2001)             |
             |                                                   |
             |                                                   |
             | Copyright (c) 1996-2020                           |
             |        The Wannier90 Developer Group and          |
             |        individual contributors                    |
             |                                                   |
             |      Release: 3.1.0        5th March    2020      |
             |                                                   |
             | This program is free software; you can            |
             | redistribute it and/or modify it under the terms  |
             | of the GNU General Public License as published by |
             | the Free Software Foundation; either version 2 of |
             | the License, or (at your option) any later version|
             |                                                   |
             | This program is distributed in the hope that it   |
             | will be useful, but WITHOUT ANY WARRANTY; without |
             | even the implied warranty of MERCHANTABILITY or   |
             | FITNESS FOR A PARTICULAR PURPOSE. See the GNU     |
             | General Public License for more details.          |
             |                                                   |
             | You should have received a copy of the GNU General|
             | Public License along with this program; if not,   |
             | write to the Free Software Foundation, Inc.,      |
             | 675 Mass Ave, Cambridge, MA 02139, USA.           |
             |                                                   |
             +---------------------------------------------------+
             |    Execution started on 31Jan2025 at 09:00:22     |
             +---------------------------------------------------+
 
 ******************************************************************************
 * -> Using CODATA 2006 constant values                                       *
 *    (http://physics.nist.gov/cuu/Constants/index.html)                      *
 * -> Using Bohr value from CODATA                                            *
 ******************************************************************************
 

 Running in parallel on  40 CPUs

 
                                    ------
                                    SYSTEM
                                    ------
 
                              Lattice Vectors (Ang)
                    a_1    -1.780373  -1.780373   0.000000
                    a_2    -1.780373   0.000000  -1.780373
                    a_3     0.000000  -1.780373  -1.780373
 
                   Unit Cell Volume:      11.28659  (Ang^3)
 
                        Reciprocal-Space Vectors (Ang^-1)
                    b_1    -1.764570  -1.764570   1.764570
                    b_2    -1.764570   1.764570  -1.764570
                    b_3     1.764570  -1.764570  -1.764570
  
 *----------------------------------------------------------------------------*
 |   Site       Fractional Coordinate          Cartesian Coordinate (Ang)     |
 +----------------------------------------------------------------------------+
 | C    1   0.50000   0.50000   0.50000   |   -1.78037  -1.78037  -1.78037    |
 | C    2   0.25000   0.25000   0.25000   |   -0.89019  -0.89019  -0.89019    |
 *----------------------------------------------------------------------------*
                                ------------
                                K-POINT GRID
                                ------------
  
             Grid size = 16 x 16 x 16      Total points = 4096
  
  
 *---------------------------------- MAIN ------------------------------------*
 |  Number of Wannier Functions               :                 8             |
 |  Number of Objective Wannier Functions     :                 8             |
 |  Number of input Bloch states              :                 8             |
 |  Output verbosity (1=low, 5=high)          :                 1             |
 |  Timing Level (1=low, 5=high)              :                 1             |
 |  Optimisation (0=memory, 3=speed)          :                 3             |
 |  Length Unit                               :               Ang             |
 |  Post-processing setup (write *.nnkp)      :                 F             |
 |  Using Gamma-only branch of algorithms     :                 F             |
 |  Wavefunction (UNK) file-type              :       unformatted             |
 |  Wavefunction spin channel                 :                up             |
 *----------------------------------------------------------------------------*
 *------------------------------- WANNIERISE ---------------------------------*
 |  Total number of iterations                :           1000000             |
 |  Number of CG steps before reset           :               100             |
 |  Trial step length for line search         :             2.000             |
 |  Convergence tolerence                     :         0.100E-09             |
 |  Convergence window                        :                 5             |
 |  Iterations between writing output         :                 1             |
 |  Iterations between backing up to disk     :               100             |
 |  Write r^2_nm to file                      :                 F             |
 |  Write xyz WF centres to file              :                 T             |
 |  Write on-site energies <0n|H|0n> to file  :                 F             |
 |  Use guiding centre to control phases      :                 F             |
 |  Use phases for initial projections        :                 F             |
 *----------------------------------------------------------------------------*
 *-------------------------------- PLOTTING ----------------------------------*
 |  Plotting Wannier functions                :                 T             |
 |   Size of supercell for plotting           :     2x    2x    2             |
 |   Plotting mode (molecule or crystal)      :           crystal             |
 |   Plotting format                          :          xcrysden             |
 *----------------------------------------------------------------------------*
 |  Plotting Hamiltonian in WF basis          :                 T             |
 *----------------------------------------------------------------------------*
 Time to read parameters        0.206 (sec)

 *---------------------------------- K-MESH ----------------------------------*
 +----------------------------------------------------------------------------+
 |                    Distance to Nearest-Neighbour Shells                    |
 |                    ------------------------------------                    |
 |          Shell             Distance (Ang^-1)          Multiplicity         |
 |          -----             -----------------          ------------         |
 |             1                   0.191020                      8            |
 |             2                   0.220571                      6            |
 |             3                   0.311935                     12            |
 |             4                   0.365776                     24            |
 |             5                   0.382041                      8            |
 |             6                   0.441143                      6            |
 |             7                   0.480724                     24            |
 |             8                   0.493212                     24            |
 |             9                   0.540287                     24            |
 |            10                   0.573061                     32            |
 |            11                   0.623870                     12            |
 |            12                   0.652459                     48            |
 |            13                   0.661714                     30            |
 |            14                   0.697508                     24            |
 |            15                   0.723191                     24            |
 |            16                   0.731552                     24            |
 |            17                   0.764081                      8            |
 |            18                   0.787597                     48            |
 |            19                   0.795281                     24            |
 |            20                   0.825302                     48            |
 |            21                   0.847120                     72            |
 |            22                   0.882285                      6            |
 |            23                   0.902727                     24            |
 |            24                   0.909439                     48            |
 |            25                   0.935805                     36            |
 |            26                   0.955102                     56            |
 |            27                   0.961448                     24            |
 |            28                   0.986425                     24            |
 |            29                   1.004750                     72            |
 |            30                   1.010785                     48            |
 |            31                   1.034571                     24            |
 |            32                   1.052058                     48            |
 |            33                   1.080574                     24            |
 |            34                   1.097328                     72            |
 |            35                   1.102856                     30            |
 |            36                   1.124697                     72            |
 +----------------------------------------------------------------------------+
 | The b-vectors are chosen automatically                                     |
 | The following shells are used:   1                                         |
 +----------------------------------------------------------------------------+
 |                        Shell   # Nearest-Neighbours                        |
 |                        -----   --------------------                        |
 |                          1               8                                 |
 +----------------------------------------------------------------------------+
 | Completeness relation is fully satisfied [Eq. (B1), PRB 56, 12847 (1997)]  |
 +----------------------------------------------------------------------------+
 |                  b_k Vectors (Ang^-1) and Weights (Ang^2)                  |
 |                  ----------------------------------------                  |
 |            No.         b_k(x)      b_k(y)      b_k(z)        w_b           |
 |            ---        --------------------------------     --------        |
 |             1        -0.110286   -0.110286    0.110286    10.277134        |
 |             2         0.110286    0.110286   -0.110286    10.277134        |
 |             3        -0.110286    0.110286   -0.110286    10.277134        |
 |             4         0.110286   -0.110286    0.110286    10.277134        |
 |             5         0.110286   -0.110286   -0.110286    10.277134        |
 |             6        -0.110286   -0.110286   -0.110286    10.277134        |
 |             7        -0.110286    0.110286    0.110286    10.277134        |
 |             8         0.110286    0.110286    0.110286    10.277134        |
 +----------------------------------------------------------------------------+
 |                           b_k Directions (Ang^-1)                          |
 |                           -----------------------                          |
 |            No.           x           y           z                         |
 |            ---        --------------------------------                     |
 |             1        -0.110286   -0.110286    0.110286                     |
 |             2        -0.110286    0.110286   -0.110286                     |
 |             3         0.110286   -0.110286   -0.110286                     |
 |             4        -0.110286   -0.110286   -0.110286                     |
 +----------------------------------------------------------------------------+
  
 Time to get kmesh              2.314 (sec)
 *============================================================================*
 |                              MEMORY ESTIMATE                               |
 |         Maximum RAM allocated during each phase of the calculation         |
 *============================================================================*
 |                            Wannierise:           91.76 Mb                  |
 |                          plot_wannier:           91.76 Mb                  |
 *----------------------------------------------------------------------------*
  
 Starting a new Wannier90 calculation ...


 Reading overlaps from wannier90.mmn    : File generated by VASP: unknown system

 Reading projections from wannier90.amn : File generated by VASP: unknown system

 Time to read overlaps          2.636 (sec)

 Writing checkpoint file wannier90.chk... done

 
 *------------------------------- WANNIERISE ---------------------------------*
 +--------------------------------------------------------------------+<-- CONV
 | Iter  Delta Spread     RMS Gradient      Spread (Ang^2)      Time  |<-- CONV
 +--------------------------------------------------------------------+<-- CONV
 
 ------------------------------------------------------------------------------
 Initial State
  WF centre and spread    1  ( -1.551040, -0.102727, -0.111242 )     1.22393219
  WF centre and spread    2  ( -1.119499, -0.993011, -1.001417 )     1.22438840
  WF centre and spread    3  (  0.014081, -0.153367, -1.445987 )     1.19917328
  WF centre and spread    4  ( -0.904190, -1.043445, -0.555832 )     1.19927069
  WF centre and spread    5  ( -0.589438, -1.030670, -1.116892 )     1.16223090
  WF centre and spread    6  (  1.479553,  1.639894,  1.553572 )     1.16183987
  WF centre and spread    7  (  0.067666, -1.386631,  0.001944 )     1.26419263
  WF centre and spread    8  ( -0.957885, -0.496322, -0.888199 )     1.26425395
  Sum of centres and spreads ( -3.560752, -3.566279, -3.564053 )     9.69928192
 
      0     0.970E+01     0.0000000000        9.6992819248       0.00  <-- CONV
        O_D=      0.1881538 O_OD=      3.0658175 O_TOT=      9.6992819 <-- SPRD
 ------------------------------------------------------------------------------
 Cycle:      1
  WF centre and spread    1  ( -1.552070, -0.101281, -0.109899 )     1.16308545
  WF centre and spread    2  ( -1.118472, -0.991570, -1.000083 )     1.16342625
  WF centre and spread    3  (  0.015226, -0.152674, -1.446578 )     1.14701175
  WF centre and spread    4  ( -0.905338, -1.042758, -0.556421 )     1.14700069
  WF centre and spread    5  ( -0.589561, -1.031969, -1.116882 )     1.11263982
  WF centre and spread    6  (  1.479681,  1.638594,  1.553585 )     1.11224252
  WF centre and spread    7  (  0.067116, -1.387259,  0.001284 )     1.21663556
  WF centre and spread    8  ( -0.957334, -0.496969, -0.888857 )     1.21672513
  Sum of centres and spreads ( -3.560752, -3.565884, -3.563852 )     9.27876717
 
      1    -0.421E+00     0.2337795609        9.2787671742       0.20  <-- CONV
        O_D=      0.1322892 O_OD=      2.7011674 O_TOT=      9.2787672 <-- SPRD
 Delta: O_D= -0.5586464E-01 O_OD= -0.3646501E+00 O_TOT= -0.4205148E+00 <-- DLTA
 ------------------------------------------------------------------------------
 Cycle:      2
  WF centre and spread    1  ( -1.553741, -0.098897, -0.107681 )     1.13073491
  WF centre and spread    2  ( -1.116812, -0.989188, -0.997870 )     1.13099971
  WF centre and spread    3  (  0.017174, -0.151661, -1.447508 )     1.11894523
  WF centre and spread    4  ( -0.907289, -1.041750, -0.557348 )     1.11889563
  WF centre and spread    5  ( -0.589674, -1.034159, -1.116923 )     1.09108790
  WF centre and spread    6  (  1.479802,  1.636397,  1.553546 )     1.09075009
  WF centre and spread    7  (  0.066208, -1.388233,  0.000154 )     1.19078415
  WF centre and spread    8  ( -0.956419, -0.497964, -0.889994 )     1.19094085
  Sum of centres and spreads ( -3.560752, -3.565455, -3.563624 )     9.06313848
 
      2    -0.216E+00     0.1391858523        9.0631384824       0.22  <-- CONV
        O_D=      0.1082271 O_OD=      2.5096008 O_TOT=      9.0631385 <-- SPRD
 Delta: O_D= -0.2406207E-01 O_OD= -0.1915666E+00 O_TOT= -0.2156287E+00 <-- DLTA
 ------------------------------------------------------------------------------
 Cycle:      3
  WF centre and spread    1  ( -1.555835, -0.095800, -0.104842 )     1.10436973
  WF centre and spread    2  ( -1.114726, -0.986094, -0.995034 )     1.10450113
  WF centre and spread    3  (  0.019654, -0.150471, -1.448645 )     1.09523873
  WF centre and spread    4  ( -0.909771, -1.040567, -0.558485 )     1.09526574
  WF centre and spread    5  ( -0.589716, -1.036963, -1.117048 )     1.07341895
  WF centre and spread    6  (  1.479852,  1.633587,  1.553424 )     1.07302287
  WF centre and spread    7  (  0.064980, -1.389480, -0.001304 )     1.16710378
  WF centre and spread    8  ( -0.955189, -0.499229, -0.891457 )     1.16724433
  Sum of centres and spreads ( -3.560751, -3.565016, -3.563391 )     8.88016525
 
      3    -0.183E+00     0.1288441834        8.8801652465       0.24  <-- CONV
        O_D=      0.0938110 O_OD=      2.3410436 O_TOT=      8.8801652 <-- SPRD
 Delta: O_D= -0.1441609E-01 O_OD= -0.1685571E+00 O_TOT= -0.1829732E+00 <-- DLTA
 ------------------------------------------------------------------------------
 Cycle:      4
  WF centre and spread    1  ( -1.557485, -0.093102, -0.102463 )     1.08848018
  WF centre and spread    2  ( -1.113081, -0.983401, -0.992659 )     1.08840382
  WF centre and spread    3  (  0.021695, -0.149566, -1.449528 )     1.07977222
  WF centre and spread    4  ( -0.911812, -1.039668, -0.559373 )     1.07975458
  WF centre and spread    5  ( -0.589630, -1.039307, -1.117251 )     1.06201221
  WF centre and spread    6  (  1.479771,  1.631239,  1.553226 )     1.06131297
  WF centre and spread    7  (  0.063861, -1.390588, -0.002521 )     1.15004618
  WF centre and spread    8  ( -0.954067, -0.500351, -0.892679 )     1.15014083
  Sum of centres and spreads ( -3.560749, -3.564744, -3.563248 )     8.75992298
 
      4    -0.120E+00     0.1062347329        8.7599229843       0.26  <-- CONV
        O_D=      0.0864430 O_OD=      2.2281694 O_TOT=      8.7599230 <-- SPRD
 Delta: O_D= -0.7368041E-02 O_OD= -0.1128742E+00 O_TOT= -0.1202423E+00 <-- DLTA
 ------------------------------------------------------------------------------
 Cycle:      5
  WF centre and spread    1  ( -1.558885, -0.090434, -0.100245 )     1.07729669
  WF centre and spread    2  ( -1.111686, -0.980729, -0.990438 )     1.07729343
  WF centre and spread    3  (  0.023591, -0.148834, -1.450267 )     1.06731129
  WF centre and spread    4  ( -0.913708, -1.038944, -0.560116 )     1.06731765
  WF centre and spread    5  ( -0.589414, -1.041517, -1.117564 )     1.05253143
  WF centre and spread    6  (  1.479557,  1.629022,  1.552918 )     1.05209120
  WF centre and spread    7  (  0.062720, -1.391665, -0.003634 )     1.13484417
  WF centre and spread    8  ( -0.952923, -0.501443, -0.893799 )     1.13489531
  Sum of centres and spreads ( -3.560748, -3.564545, -3.563146 )     8.66358118
 
      5    -0.963E-01     0.0940138525        8.6635811841       0.28  <-- CONV
        O_D=      0.0791521 O_OD=      2.1391185 O_TOT=      8.6635812 <-- SPRD
 Delta: O_D= -0.7290906E-02 O_OD= -0.8905089E-01 O_TOT= -0.9634180E-01 <-- DLTA
 ------------------------------------------------------------------------------
 Cycle:      6
  WF centre and spread    1  ( -1.559797, -0.088249, -0.098563 )     1.07186555
  WF centre and spread    2  ( -1.110776, -0.978540, -0.988754 )     1.07181328
  WF centre and spread    3  (  0.025060, -0.148401, -1.450717 )     1.05906769
  WF centre and spread    4  ( -0.915175, -1.038518, -0.560566 )     1.05908316
  WF centre and spread    5  ( -0.589103, -1.043265, -1.117923 )     1.04632756
  WF centre and spread    6  (  1.479247,  1.627270,  1.552563 )     1.04604409
  WF centre and spread    7  (  0.061754, -1.392459, -0.004471 )     1.12345934
  WF centre and spread    8  ( -0.951956, -0.502243, -0.894643 )     1.12351550
  Sum of centres and spreads ( -3.560746, -3.564405, -3.563074 )     8.60117618
 
      6    -0.624E-01     0.0774113043        8.6011761806       0.30  <-- CONV
        O_D=      0.0728792 O_OD=      2.0829864 O_TOT=      8.6011762 <-- SPRD
 Delta: O_D= -0.6272895E-02 O_OD= -0.5613211E-01 O_TOT= -0.6240500E-01 <-- DLTA
 ------------------------------------------------------------------------------
 Cycle:      7
  WF centre and spread    1  ( -1.560422, -0.086292, -0.097163 )     1.06962703
  WF centre and spread    2  ( -1.110153, -0.976579, -0.987352 )     1.06953874
  WF centre and spread    3  (  0.026330, -0.148160, -1.450966 )     1.05334601
  WF centre and spread    4  ( -0.916445, -1.038280, -0.560815 )     1.05337945
  WF centre and spread    5  ( -0.588691, -1.044802, -1.118342 )     1.04184661
  WF centre and spread    6  (  1.478836,  1.625730,  1.552149 )     1.04163541
  WF centre and spread    7  (  0.060858, -1.393054, -0.005170 )     1.11438617
  WF centre and spread    8  ( -0.951059, -0.502844, -0.895348 )     1.11446748
  Sum of centres and spreads ( -3.560745, -3.564281, -3.563007 )     8.55822690
 
      7    -0.429E-01     0.0639385499        8.5582269000       0.31  <-- CONV
        O_D=      0.0696207 O_OD=      2.0432956 O_TOT=      8.5582269 <-- SPRD
 Delta: O_D= -0.3258431E-02 O_OD= -0.3969085E-01 O_TOT= -0.4294928E-01 <-- DLTA
 ------------------------------------------------------------------------------
 Cycle:      8
  WF centre and spread    1  ( -1.560895, -0.084321, -0.095838 )     1.06940606
  WF centre and spread    2  ( -1.109682, -0.974605, -0.986024 )     1.06934545
  WF centre and spread    3  (  0.027574, -0.148032, -1.451079 )     1.04892367
  WF centre and spread    4  ( -0.917689, -1.038156, -0.560928 )     1.04898059
  WF centre and spread    5  ( -0.588168, -1.046333, -1.118850 )     1.03823748
  WF centre and spread    6  (  1.478316,  1.624197,  1.551646 )     1.03809300
  WF centre and spread    7  (  0.059927, -1.393555, -0.005839 )     1.10625547
  WF centre and spread    8  ( -0.950127, -0.503351, -0.896023 )     1.10634395
  Sum of centres and spreads ( -3.560745, -3.564157, -3.562934 )     8.52558565
 
      8    -0.326E-01     0.0532580196        8.5255856529       0.33  <-- CONV
        O_D=      0.0684983 O_OD=      2.0117767 O_TOT=      8.5255857 <-- SPRD
 Delta: O_D= -0.1122403E-02 O_OD= -0.3151884E-01 O_TOT= -0.3264125E-01 <-- DLTA
 ------------------------------------------------------------------------------
 Cycle:      9
  WF centre and spread    1  ( -1.561377, -0.081885, -0.094253 )     1.07064474
  WF centre and spread    2  ( -1.109204, -0.972165, -0.984436 )     1.07057593
  WF centre and spread    3  (  0.029105, -0.147944, -1.451110 )     1.04457468
  WF centre and spread    4  ( -0.919220, -1.038070, -0.560959 )     1.04464928
  WF centre and spread    5  ( -0.587458, -1.048220, -1.119542 )     1.03430897
  WF centre and spread    6  (  1.477606,  1.622309,  1.550960 )     1.03416626
  WF centre and spread    7  (  0.058762, -1.394116, -0.006654 )     1.09710034
  WF centre and spread    8  ( -0.948961, -0.503917, -0.896844 )     1.09720797
  Sum of centres and spreads ( -3.560745, -3.564007, -3.562839 )     8.49322818
 
      9    -0.324E-01     0.0506551265        8.4932281768       0.35  <-- CONV
        O_D=      0.0684519 O_OD=      1.9794657 O_TOT=      8.4932282 <-- SPRD
 Delta: O_D= -0.4645396E-04 O_OD= -0.3231102E-01 O_TOT= -0.3235748E-01 <-- DLTA
 ------------------------------------------------------------------------------
 Cycle:     10
  WF centre and spread    1  ( -1.561888, -0.079006, -0.092405 )     1.07303827
  WF centre and spread    2  ( -1.108695, -0.969284, -0.982585 )     1.07296265
  WF centre and spread    3  (  0.030953, -0.147860, -1.451062 )     1.04025094
  WF centre and spread    4  ( -0.921067, -1.037989, -0.560910 )     1.04033399
  WF centre and spread    5  ( -0.586576, -1.050455, -1.120418 )     1.02995617
  WF centre and spread    6  (  1.476727,  1.620074,  1.550090 )     1.02983388
  WF centre and spread    7  (  0.057386, -1.394757, -0.007621 )     1.08699082
  WF centre and spread    8  ( -0.947584, -0.504562, -0.897818 )     1.08711194
  Sum of centres and spreads ( -3.560744, -3.563838, -3.562730 )     8.46047867
 
     10    -0.327E-01     0.0504931145        8.4604786668       0.37  <-- CONV
        O_D=      0.0694347 O_OD=      1.9457334 O_TOT=      8.4604787 <-- SPRD
 Delta: O_D=  0.9828187E-03 O_OD= -0.3373233E-01 O_TOT= -0.3274951E-01 <-- DLTA
 ------------------------------------------------------------------------------
 Cycle:     11
  WF centre and spread    1  ( -1.562349, -0.076121, -0.090567 )     1.07618858
  WF centre and spread    2  ( -1.108236, -0.966397, -0.980745 )     1.07610531
  WF centre and spread    3  (  0.032875, -0.147777, -1.450924 )     1.03649523
  WF centre and spread    4  ( -0.922987, -1.037908, -0.560771 )     1.03658315
  WF centre and spread    5  ( -0.585630, -1.052727, -1.121372 )     1.02560478
  WF centre and spread    6  (  1.475782,  1.617803,  1.549141 )     1.02548596
  WF centre and spread    7  (  0.056017, -1.395374, -0.008597 )     1.07725581
  WF centre and spread    8  ( -0.946214, -0.505181, -0.898799 )     1.07737644
  Sum of centres and spreads ( -3.560742, -3.563682, -3.562634 )     8.43109527
 
     11    -0.294E-01     0.0504275705        8.4310952673       0.39  <-- CONV
        O_D=      0.0710231 O_OD=      1.9147615 O_TOT=      8.4310953 <-- SPRD
 Delta: O_D=  0.1588417E-02 O_OD= -0.3097182E-01 O_TOT= -0.2938340E-01 <-- DLTA
 ------------------------------------------------------------------------------
 Cycle:     12
  WF centre and spread    1  ( -1.562658, -0.073781, -0.089102 )     1.07942188
  WF centre and spread    2  ( -1.107929, -0.964058, -0.979280 )     1.07935673
  WF centre and spread    3  (  0.034505, -0.147732, -1.450692 )     1.03387204
  WF centre and spread    4  ( -0.924615, -1.037862, -0.560540 )     1.03396790
  WF centre and spread    5  ( -0.584767, -1.054624, -1.122243 )     1.02202181
  WF centre and spread    6  (  1.474919,  1.615907,  1.548273 )     1.02191102
  WF centre and spread    7  (  0.054913, -1.395803, -0.009391 )     1.06960418
  WF centre and spread    8  ( -0.945111, -0.505611, -0.899594 )     1.06970787
  Sum of centres and spreads ( -3.560743, -3.563565, -3.562568 )     8.40986343
 
     12    -0.212E-01     0.0448686308        8.4098634304       0.40  <-- CONV
        O_D=      0.0724691 O_OD=      1.8920837 O_TOT=      8.4098634 <-- SPRD
 Delta: O_D=  0.1446024E-02 O_OD= -0.2267786E-01 O_TOT= -0.2123184E-01 <-- DLTA
 ------------------------------------------------------------------------------
 Cycle:     13
  WF centre and spread    1  ( -1.562835, -0.071797, -0.087899 )     1.08284242
  WF centre and spread    2  ( -1.107752, -0.962076, -0.978078 )     1.08278991
  WF centre and spread    3  (  0.035958, -0.147728, -1.450348 )     1.03200942
  WF centre and spread    4  ( -0.926067, -1.037857, -0.560196 )     1.03210714
  WF centre and spread    5  ( -0.583911, -1.056307, -1.123097 )     1.01891336
  WF centre and spread    6  (  1.474062,  1.614225,  1.547419 )     1.01879841
  WF centre and spread    7  (  0.053978, -1.396059, -0.010054 )     1.06334652
  WF centre and spread    8  ( -0.944177, -0.505866, -0.900257 )     1.06342646
  Sum of centres and spreads ( -3.560744, -3.563465, -3.562511 )     8.39423363
 
     13    -0.156E-01     0.0379178593        8.3942336319       0.42  <-- CONV
        O_D=      0.0737186 O_OD=      1.8752044 O_TOT=      8.3942336 <-- SPRD
 Delta: O_D=  0.1249446E-02 O_OD= -0.1687924E-01 O_TOT= -0.1562980E-01 <-- DLTA
 ------------------------------------------------------------------------------
 Cycle:     14
  WF centre and spread    1  ( -1.562897, -0.069995, -0.086853 )     1.08660050
  WF centre and spread    2  ( -1.107691, -0.960276, -0.977034 )     1.08655016
  WF centre and spread    3  (  0.037349, -0.147760, -1.449880 )     1.03065286
  WF centre and spread    4  ( -0.927457, -1.037886, -0.559727 )     1.03074659
  WF centre and spread    5  ( -0.582995, -1.057921, -1.123998 )     1.01589949
  WF centre and spread    6  (  1.473146,  1.612611,  1.546519 )     1.01578637
  WF centre and spread    7  (  0.053135, -1.396167, -0.010638 )     1.05791994
  WF centre and spread    8  ( -0.943335, -0.505974, -0.900840 )     1.05797787
  Sum of centres and spreads ( -3.560744, -3.563369, -3.562451 )     8.38213378
 
     14    -0.121E-01     0.0325616614        8.3821337813       0.44  <-- CONV
        O_D=      0.0746116 O_OD=      1.8622116 O_TOT=      8.3821338 <-- SPRD
 Delta: O_D=  0.8929928E-03 O_OD= -0.1299284E-01 O_TOT= -0.1209985E-01 <-- DLTA
 ------------------------------------------------------------------------------
 Cycle:     15
  WF centre and spread    1  ( -1.562861, -0.068097, -0.085802 )     1.09110831
  WF centre and spread    2  ( -1.107728, -0.958381, -0.975983 )     1.09105702
  WF centre and spread    3  (  0.038890, -0.147818, -1.449235 )     1.02952209
  WF centre and spread    4  ( -0.928996, -1.037940, -0.559082 )     1.02961765
  WF centre and spread    5  ( -0.581893, -1.059714, -1.125070 )     1.01246020
  WF centre and spread    6  (  1.472044,  1.610817,  1.545447 )     1.01235045
  WF centre and spread    7  (  0.052259, -1.396164, -0.011227 )     1.05251110
  WF centre and spread    8  ( -0.942459, -0.505970, -0.901428 )     1.05254757
  Sum of centres and spreads ( -3.560744, -3.563267, -3.562379 )     8.37117438
 
     15    -0.110E-01     0.0301196389        8.3711743835       0.45  <-- CONV
        O_D=      0.0750406 O_OD=      1.8508232 O_TOT=      8.3711744 <-- SPRD
 Delta: O_D=  0.4290174E-03 O_OD= -0.1138842E-01 O_TOT= -0.1095940E-01 <-- DLTA
 ------------------------------------------------------------------------------
 Cycle:     16
  WF centre and spread    1  ( -1.562731, -0.066107, -0.084747 )     1.09620433
  WF centre and spread    2  ( -1.107859, -0.956394, -0.974930 )     1.09615613
  WF centre and spread    3  (  0.040579, -0.147884, -1.448427 )     1.02858185
  WF centre and spread    4  ( -0.930683, -1.038004, -0.558273 )     1.02867733
  WF centre and spread    5  ( -0.580618, -1.061690, -1.126304 )     1.00860864
  WF centre and spread    6  (  1.470769,  1.608839,  1.544214 )     1.00850135
  WF centre and spread    7  (  0.051357, -1.396059, -0.011815 )     1.04719013
  WF centre and spread    8  ( -0.941558, -0.505866, -0.902015 )     1.04720215
  Sum of centres and spreads ( -3.560745, -3.563166, -3.562299 )     8.36112191
 
     16    -0.101E-01     0.0289067733        8.3611219056       0.47  <-- CONV
        O_D=      0.0752251 O_OD=      1.8405862 O_TOT=      8.3611219 <-- SPRD
 Delta: O_D=  0.1845095E-03 O_OD= -0.1023699E-01 O_TOT= -0.1005248E-01 <-- DLTA
 ------------------------------------------------------------------------------
 Cycle:     17
  WF centre and spread    1  ( -1.562522, -0.064004, -0.083678 )     1.10173985
  WF centre and spread    2  ( -1.108070, -0.954293, -0.973862 )     1.10169502
  WF centre and spread    3  (  0.042432, -0.147949, -1.447470 )     1.02778658
  WF centre and spread    4  ( -0.932535, -1.038066, -0.557315 )     1.02787911
  WF centre and spread    5  ( -0.579174, -1.063873, -1.127697 )     1.00439525
  WF centre and spread    6  (  1.469326,  1.606656,  1.542822 )     1.00428541
  WF centre and spread    7  (  0.050421, -1.395867, -0.012408 )     1.04197852
  WF centre and spread    8  ( -0.940624, -0.505675, -0.902607 )     1.04197494
  Sum of centres and spreads ( -3.560746, -3.563071, -3.562214 )     8.35173469
 
     17    -0.939E-02     0.0278507935        8.3517346942       0.49  <-- CONV
        O_D=      0.0752298 O_OD=      1.8311943 O_TOT=      8.3517347 <-- SPRD
 Delta: O_D=  0.4727932E-05 O_OD= -0.9391939E-02 O_TOT= -0.9387211E-02 <-- DLTA
 ------------------------------------------------------------------------------
 Cycle:     18
  WF centre and spread    1  ( -1.562257, -0.061844, -0.082623 )     1.10738010
  WF centre and spread    2  ( -1.108336, -0.952135, -0.972808 )     1.10734256
  WF centre and spread    3  (  0.044394, -0.148003, -1.446415 )     1.02713224
  WF centre and spread    4  ( -0.934496, -1.038118, -0.556258 )     1.02722027
  WF centre and spread    5  ( -0.577630, -1.066193, -1.129187 )     1.00002868
  WF centre and spread    6  (  1.467783,  1.604335,  1.541333 )     0.99991651
  WF centre and spread    7  (  0.049471, -1.395612, -0.012987 )     1.03709635
  WF centre and spread    8  ( -0.939676, -0.505420, -0.903186 )     1.03709182
  Sum of centres and spreads ( -3.560746, -3.562991, -3.562130 )     8.34320853
 
     18    -0.853E-02     0.0264641962        8.3432085309       0.50  <-- CONV
        O_D=      0.0751494 O_OD=      1.8227485 O_TOT=      8.3432085 <-- SPRD
 Delta: O_D= -0.8038767E-04 O_OD= -0.8445776E-02 O_TOT= -0.8526163E-02 <-- DLTA
 ------------------------------------------------------------------------------
 Cycle:     19
  WF centre and spread    1  ( -1.561943, -0.059501, -0.081522 )     1.11331494
  WF centre and spread    2  ( -1.108652, -0.949792, -0.971707 )     1.11327710
  WF centre and spread    3  (  0.046570, -0.148043, -1.445232 )     1.02653850
  WF centre and spread    4  ( -0.936670, -1.038157, -0.555073 )     1.02662255
  WF centre and spread    5  ( -0.575938, -1.068770, -1.130830 )     0.99535473
  WF centre and spread    6  (  1.466094,  1.601759,  1.539691 )     0.99524665
  WF centre and spread    7  (  0.048445, -1.395304, -0.013588 )     1.03230049
  WF centre and spread    8  ( -0.938651, -0.505113, -0.903788 )     1.03230138
  Sum of centres and spreads ( -3.560746, -3.562921, -3.562049 )     8.33495635
 
     19    -0.825E-02     0.0259274487        8.3349563464       0.52  <-- CONV
        O_D=      0.0749679 O_OD=      1.8146778 O_TOT=      8.3349563 <-- SPRD
 Delta: O_D= -0.1815125E-03 O_OD= -0.8070672E-02 O_TOT= -0.8252185E-02 <-- DLTA
 ------------------------------------------------------------------------------
 Cycle:     20
  WF centre and spread    1  ( -1.561593, -0.056922, -0.080363 )     1.11958823
  WF centre and spread    2  ( -1.109002, -0.947215, -0.970546 )     1.11955202
  WF centre and spread    3  (  0.048994, -0.148063, -1.443924 )     1.02596593
  WF centre and spread    4  ( -0.939095, -1.038175, -0.553762 )     1.02604071
  WF centre and spread    5  ( -0.574116, -1.071641, -1.132629 )     0.99033642
  WF centre and spread    6  (  1.464273,  1.598887,  1.537894 )     0.99023205
  WF centre and spread    7  (  0.047310, -1.394958, -0.014220 )     1.02754051
  WF centre and spread    8  ( -0.937518, -0.504768, -0.904421 )     1.02754408
  Sum of centres and spreads ( -3.560746, -3.562855, -3.561971 )     8.32679995
 
     20    -0.816E-02     0.0253954836        8.3267999500       0.54  <-- CONV
        O_D=      0.0746363 O_OD=      1.8068530 O_TOT=      8.3268000 <-- SPRD
 Delta: O_D= -0.3316249E-03 O_OD= -0.7824772E-02 O_TOT= -0.8156396E-02 <-- DLTA
 ------------------------------------------------------------------------------
 Cycle:     21
  WF centre and spread    1  ( -1.561229, -0.054135, -0.079170 )     1.12613770
  WF centre and spread    2  ( -1.109366, -0.944430, -0.969352 )     1.12609443
  WF centre and spread    3  (  0.051631, -0.148057, -1.442524 )     1.02538641
  WF centre and spread    4  ( -0.941730, -1.038167, -0.552359 )     1.02545033
  WF centre and spread    5  ( -0.572227, -1.074768, -1.134537 )     0.98504420
  WF centre and spread    6  (  1.462387,  1.595761,  1.535989 )     0.98494554
  WF centre and spread    7  (  0.046071, -1.394588, -0.014870 )     1.02286178
  WF centre and spread    8  ( -0.936282, -0.504398, -0.905072 )     1.02286171
  Sum of centres and spreads ( -3.560746, -3.562783, -3.561895 )     8.31878212
 
     21    -0.802E-02     0.0254506642        8.3187821201       0.55  <-- CONV
        O_D=      0.0742862 O_OD=      1.7991854 O_TOT=      8.3187821 <-- SPRD
 Delta: O_D= -0.3501505E-03 O_OD= -0.7667679E-02 O_TOT= -0.8017830E-02 <-- DLTA
 ------------------------------------------------------------------------------
 Cycle:     22
  WF centre and spread    1  ( -1.560901, -0.051373, -0.078052 )     1.13235946
  WF centre and spread    2  ( -1.109694, -0.941669, -0.968233 )     1.13230856
  WF centre and spread    3  (  0.054240, -0.148027, -1.441170 )     1.02482817
  WF centre and spread    4  ( -0.944339, -1.038136, -0.551003 )     1.02488678
  WF centre and spread    5  ( -0.570472, -1.077875, -1.136367 )     0.97997679
  WF centre and spread    6  (  1.460634,  1.592654,  1.534162 )     0.97988677
  WF centre and spread    7  (  0.044830, -1.394231, -0.015478 )     1.01865395
  WF centre and spread    8  ( -0.935043, -0.504041, -0.905681 )     1.01864886
  Sum of centres and spreads ( -3.560745, -3.562697, -3.561823 )     8.31154934
 
     22    -0.723E-02     0.0246707361        8.3115493402       0.57  <-- CONV
        O_D=      0.0741487 O_OD=      1.7920900 O_TOT=      8.3115493 <-- SPRD
 Delta: O_D= -0.1374454E-03 O_OD= -0.7095334E-02 O_TOT= -0.7232780E-02 <-- DLTA
 ------------------------------------------------------------------------------
 Cycle:     23
  WF centre and spread    1  ( -1.560629, -0.048644, -0.077014 )     1.13816211
  WF centre and spread    2  ( -1.109965, -0.938940, -0.967193 )     1.13809535
  WF centre and spread    3  (  0.056795, -0.147981, -1.439887 )     1.02428720
  WF centre and spread    4  ( -0.946894, -1.038088, -0.549719 )     1.02433638
  WF centre and spread    5  ( -0.568882, -1.080937, -1.138096 )     0.97522338
  WF centre and spread    6  (  1.459045,  1.589592,  1.532434 )     0.97514317
  WF centre and spread    7  (  0.043591, -1.393894, -0.016034 )     1.01492689
  WF centre and spread    8  ( -0.933807, -0.503703, -0.906239 )     1.01491290
  Sum of centres and spreads ( -3.560746, -3.562594, -3.561750 )     8.30508739
 
     23    -0.646E-02     0.0233875526        8.3050873858       0.59  <-- CONV
        O_D=      0.0742014 O_OD=      1.7855754 O_TOT=      8.3050874 <-- SPRD
 Delta: O_D=  0.5271170E-04 O_OD= -0.6514666E-02 O_TOT= -0.6461954E-02 <-- DLTA
 ------------------------------------------------------------------------------
 Cycle:     24
  WF centre and spread    1  ( -1.560421, -0.045795, -0.076002 )     1.14372266
  WF centre and spread    2  ( -1.110173, -0.936091, -0.966178 )     1.14365033
  WF centre and spread    3  (  0.059422, -0.147919, -1.438630 )     1.02372460
  WF centre and spread    4  ( -0.949521, -1.038025, -0.548460 )     1.02376486
  WF centre and spread    5  ( -0.567397, -1.084114, -1.139804 )     0.97061966
  WF centre and spread    6  (  1.457563,  1.586416,  1.530728 )     0.97054920
  WF centre and spread    7  (  0.042286, -1.393570, -0.016561 )     1.01150726
  WF centre and spread    8  ( -0.932505, -0.503380, -0.906768 )     1.01148828
  Sum of centres and spreads ( -3.560746, -3.562479, -3.561676 )     8.29902684
 
     24    -0.606E-02     0.0221698639        8.2990268435       0.60  <-- CONV
        O_D=      0.0743016 O_OD=      1.7794146 O_TOT=      8.2990268 <-- SPRD
 Delta: O_D=  0.1001706E-03 O_OD= -0.6160713E-02 O_TOT= -0.6060542E-02 <-- DLTA
 ------------------------------------------------------------------------------
 Cycle:     25
  WF centre and spread    1  ( -1.560278, -0.042413, -0.074886 )     1.14971778
  WF centre and spread    2  ( -1.110317, -0.932710, -0.965059 )     1.14964332
  WF centre and spread    3  (  0.062485, -0.147826, -1.437250 )     1.02307148
  WF centre and spread    4  ( -0.952583, -1.037931, -0.547078 )     1.02310453
  WF centre and spread    5  ( -0.565856, -1.087859, -1.141704 )     0.96559035
  WF centre and spread    6  (  1.456024,  1.582670,  1.528830 )     0.96552717
  WF centre and spread    7  (  0.040721, -1.393233, -0.017121 )     1.00793637
  WF centre and spread    8  ( -0.930943, -0.503044, -0.907330 )     1.00791265
  Sum of centres and spreads ( -3.560746, -3.562345, -3.561597 )     8.29250364
 
     25    -0.652E-02     0.0223717198        8.2925036398       0.62  <-- CONV
        O_D=      0.0744007 O_OD=      1.7727923 O_TOT=      8.2925036 <-- SPRD
 Delta: O_D=  0.9913598E-04 O_OD= -0.6622340E-02 O_TOT= -0.6523204E-02 <-- DLTA
 ------------------------------------------------------------------------------
 Cycle:     26
  WF centre and spread    1  ( -1.560240, -0.038373, -0.073661 )     1.15620496
  WF centre and spread    2  ( -1.110356, -0.928672, -0.963831 )     1.15613470
  WF centre and spread    3  (  0.066066, -0.147686, -1.435742 )     1.02231649
  WF centre and spread    4  ( -0.956163, -1.037789, -0.545569 )     1.02234452
  WF centre and spread    5  ( -0.564286, -1.092306, -1.143810 )     0.96009714
  WF centre and spread    6  (  1.454457,  1.578223,  1.526727 )     0.96003958
  WF centre and spread    7  (  0.038825, -1.392892, -0.017710 )     1.00411629
  WF centre and spread    8  ( -0.929049, -0.502704, -0.907921 )     1.00408856
  Sum of centres and spreads ( -3.560745, -3.562201, -3.561517 )     8.28534224
 
     26    -0.716E-02     0.0231403203        8.2853422390       0.64  <-- CONV
        O_D=      0.0745148 O_OD=      1.7655169 O_TOT=      8.2853422 <-- SPRD
 Delta: O_D=  0.1140305E-03 O_OD= -0.7275431E-02 O_TOT= -0.7161401E-02 <-- DLTA
 ------------------------------------------------------------------------------
 Cycle:     27
  WF centre and spread    1  ( -1.560369, -0.033315, -0.072269 )     1.16354020
  WF centre and spread    2  ( -1.110230, -0.923615, -0.962433 )     1.16348462
  WF centre and spread    3  (  0.070447, -0.147461, -1.434029 )     1.02137045
  WF centre and spread    4  ( -0.960542, -1.037563, -0.543855 )     1.02139274
  WF centre and spread    5  ( -0.562666, -1.097860, -1.146230 )     0.95382995
  WF centre and spread    6  (  1.452842,  1.572668,  1.524309 )     0.95378174
  WF centre and spread    7  (  0.036401, -1.392538, -0.018353 )     0.99978784
  WF centre and spread    8  ( -0.926629, -0.502354, -0.908569 )     0.99975403
  Sum of centres and spreads ( -3.560745, -3.562038, -3.561430 )     8.27694158
 
     27    -0.840E-02     0.0248159599        8.2769415813       0.65  <-- CONV
        O_D=      0.0745158 O_OD=      1.7571152 O_TOT=      8.2769416 <-- SPRD
 Delta: O_D=  0.1046188E-05 O_OD= -0.8401704E-02 O_TOT= -0.8400658E-02 <-- DLTA
 ------------------------------------------------------------------------------
 Cycle:     28
  WF centre and spread    1  ( -1.560782, -0.026901, -0.070701 )     1.17188078
  WF centre and spread    2  ( -1.109818, -0.917201, -0.960857 )     1.17183890
  WF centre and spread    3  (  0.075854, -0.147084, -1.432093 )     1.02013928
  WF centre and spread    4  ( -0.965947, -1.037184, -0.541917 )     1.02014882
  WF centre and spread    5  ( -0.561095, -1.104903, -1.148985 )     0.94666067
  WF centre and spread    6  (  1.451276,  1.565626,  1.521557 )     0.94662356
  WF centre and spread    7  (  0.033248, -1.392192, -0.019056 )     0.99477326
  WF centre and spread    8  ( -0.923481, -0.502011, -0.909277 )     0.99472694
  Sum of centres and spreads ( -3.560746, -3.561850, -3.561329 )     8.26679221
 
     28    -0.101E-01     0.0269897934        8.2667922110       0.67  <-- CONV
        O_D=      0.0742279 O_OD=      1.7472537 O_TOT=      8.2667922 <-- SPRD
 Delta: O_D= -0.2879421E-03 O_OD= -0.9861428E-02 O_TOT= -0.1014937E-01 <-- DLTA
 ------------------------------------------------------------------------------
 Cycle:     29
  WF centre and spread    1  ( -1.561657, -0.018971, -0.069031 )     1.18117265
  WF centre and spread    2  ( -1.108945, -0.909271, -0.959177 )     1.18113853
  WF centre and spread    3  (  0.082332, -0.146455, -1.430021 )     1.01858382
  WF centre and spread    4  ( -0.972424, -1.036554, -0.539843 )     1.01858921
  WF centre and spread    5  ( -0.559845, -1.113640, -1.151935 )     0.93866268
  WF centre and spread    6  (  1.450032,  1.556889,  1.518610 )     0.93864043
  WF centre and spread    7  (  0.029225, -1.391905, -0.019796 )     0.98894719
  WF centre and spread    8  ( -0.919464, -0.501728, -0.910024 )     0.98889977
  Sum of centres and spreads ( -3.560746, -3.561635, -3.561216 )     8.25463428
 
     29    -0.122E-01     0.0298536253        8.2546342784       0.69  <-- CONV
        O_D=      0.0735741 O_OD=      1.7357496 O_TOT=      8.2546343 <-- SPRD
 Delta: O_D= -0.6538124E-03 O_OD= -0.1150412E-01 O_TOT= -0.1215793E-01 <-- DLTA
 ------------------------------------------------------------------------------
 Cycle:     30
  WF centre and spread    1  ( -1.563005, -0.010575, -0.067572 )     1.19008770
  WF centre and spread    2  ( -1.107598, -0.900875, -0.957706 )     1.19005014
  WF centre and spread    3  (  0.088958, -0.145606, -1.428190 )     1.01693124
  WF centre and spread    4  ( -0.979048, -1.035703, -0.538010 )     1.01694064
  WF centre and spread    5  ( -0.559352, -1.122931, -1.154517 )     0.93099258
  WF centre and spread    6  (  1.449544,  1.547599,  1.516031 )     0.93098834
  WF centre and spread    7  (  0.024805, -1.391753, -0.020454 )     0.98303477
  WF centre and spread    8  ( -0.915051, -0.501578, -0.910690 )     0.98299948
  Sum of centres and spreads ( -3.560746, -3.561421, -3.561108 )     8.24202489
 
     30    -0.126E-01     0.0316137669        8.2420248919       0.71  <-- CONV
        O_D=      0.0727801 O_OD=      1.7239342 O_TOT=      8.2420249 <-- SPRD
 Delta: O_D= -0.7939782E-03 O_OD= -0.1181541E-01 O_TOT= -0.1260939E-01 <-- DLTA
 ------------------------------------------------------------------------------
 Cycle:     31
  WF centre and spread    1  ( -1.564584, -0.002993, -0.066529 )     1.19732808
  WF centre and spread    2  ( -1.106021, -0.893291, -0.956655 )     1.19728564
  WF centre and spread    3  (  0.094728, -0.144723, -1.426846 )     1.01544689
  WF centre and spread    4  ( -0.984814, -1.034818, -0.536665 )     1.01547326
  WF centre and spread    5  ( -0.559657, -1.131325, -1.156369 )     0.92469039
  WF centre and spread    6  (  1.449853,  1.539205,  1.514180 )     0.92470322
  WF centre and spread    7  (  0.020658, -1.391729, -0.020941 )     0.97796575
  WF centre and spread    8  ( -0.910909, -0.501557, -0.911186 )     0.97794978
  Sum of centres and spreads ( -3.560746, -3.561231, -3.561011 )     8.23084302
 
     31    -0.112E-01     0.0313370485        8.2308430174       0.72  <-- CONV
        O_D=      0.0719638 O_OD=      1.7135686 O_TOT=      8.2308430 <-- SPRD
 Delta: O_D= -0.8162973E-03 O_OD= -0.1036558E-01 O_TOT= -0.1118187E-01 <-- DLTA
 ------------------------------------------------------------------------------
 Cycle:     32
  WF centre and spread    1  ( -1.566079,  0.003119, -0.065905 )     1.20245458
  WF centre and spread    2  ( -1.104527, -0.887177, -0.956023 )     1.20241131
  WF centre and spread    3  (  0.099208, -0.144017, -1.425962 )     1.01426092
  WF centre and spread    4  ( -0.989291, -1.034110, -0.535780 )     1.01429715
  WF centre and spread    5  ( -0.560438, -1.138027, -1.157538 )     0.92005586
  WF centre and spread    6  (  1.450636,  1.532504,  1.513013 )     0.92008431
  WF centre and spread    7  (  0.017191, -1.391767, -0.021240 )     0.97426009
  WF centre and spread    8  ( -0.907445, -0.501596, -0.911491 )     0.97425642
  Sum of centres and spreads ( -3.560745, -3.561073, -3.560926 )     8.22208065
 
     32    -0.876E-02     0.0280005028        8.2220806519       0.74  <-- CONV
        O_D=      0.0711976 O_OD=      1.7055725 O_TOT=      8.2220807 <-- SPRD
 Delta: O_D= -0.7662257E-03 O_OD= -0.7996140E-02 O_TOT= -0.8762365E-02 <-- DLTA
 ------------------------------------------------------------------------------
 Cycle:     33
  WF centre and spread    1  ( -1.567465,  0.008308, -0.065557 )     1.20614249
  WF centre and spread    2  ( -1.103141, -0.881987, -0.955670 )     1.20610010
  WF centre and spread    3  (  0.102871, -0.143515, -1.425332 )     1.01325565
  WF centre and spread    4  ( -0.992950, -1.033605, -0.535149 )     1.01329425
  WF centre and spread    5  ( -0.561473, -1.143596, -1.158316 )     0.91648156
  WF centre and spread    6  (  1.451673,  1.526936,  1.512235 )     0.91652204
  WF centre and spread    7  (  0.014143, -1.391820, -0.021402 )     0.97157449
  WF centre and spread    8  ( -0.904401, -0.501650, -0.911658 )     0.97157563
  Sum of centres and spreads ( -3.560744, -3.560930, -3.560848 )     8.21494621
 
     33    -0.713E-02     0.0248227467        8.2149462054       0.76  <-- CONV
        O_D=      0.0706161 O_OD=      1.6990195 O_TOT=      8.2149462 <-- SPRD
 Delta: O_D= -0.5814627E-03 O_OD= -0.6552984E-02 O_TOT= -0.7134447E-02 <-- DLTA
 ------------------------------------------------------------------------------
 Cycle:     34
  WF centre and spread    1  ( -1.568870,  0.013275, -0.065396 )     1.20907847
  WF centre and spread    2  ( -1.101737, -0.877019, -0.955506 )     1.20903330
  WF centre and spread    3  (  0.106253, -0.143170, -1.424812 )     1.01229422
  WF centre and spread    4  ( -0.996329, -1.033258, -0.534628 )     1.01233070
  WF centre and spread    5  ( -0.562765, -1.148778, -1.158902 )     0.91336444
  WF centre and spread    6  (  1.452966,  1.521753,  1.511651 )     0.91340692
  WF centre and spread    7  (  0.011129, -1.391883, -0.021462 )     0.96946118
  WF centre and spread    8  ( -0.901390, -0.501713, -0.911722 )     0.96945631
  Sum of centres and spreads ( -3.560744, -3.560793, -3.560777 )     8.20842553
 
     34    -0.652E-02     0.0232898570        8.2084255321       0.78  <-- CONV
        O_D=      0.0703665 O_OD=      1.6927484 O_TOT=      8.2084255 <-- SPRD
 Delta: O_D= -0.2496066E-03 O_OD= -0.6271067E-02 O_TOT= -0.6520673E-02 <-- DLTA
 ------------------------------------------------------------------------------
 Cycle:     35
  WF centre and spread    1  ( -1.570293,  0.018099, -0.065408 )     1.21142300
  WF centre and spread    2  ( -1.100315, -0.872195, -0.955514 )     1.21137234
  WF centre and spread    3  (  0.109429, -0.142992, -1.424368 )     1.01133200
  WF centre and spread    4  ( -0.999502, -1.033076, -0.534184 )     1.01136771
  WF centre and spread    5  ( -0.564275, -1.153652, -1.159344 )     0.91059959
  WF centre and spread    6  (  1.454476,  1.516880,  1.511209 )     0.91064424
  WF centre and spread    7  (  0.008104, -1.391954, -0.021425 )     0.96782548
  WF centre and spread    8  ( -0.898370, -0.501783, -0.911688 )     0.96781439
  Sum of centres and spreads ( -3.560745, -3.560673, -3.560721 )     8.20237875
 
     35    -0.605E-02     0.0223064582        8.2023787474       0.79  <-- CONV
        O_D=      0.0702639 O_OD=      1.6868043 O_TOT=      8.2023787 <-- SPRD
 Delta: O_D= -0.1026064E-03 O_OD= -0.5944178E-02 O_TOT= -0.6046785E-02 <-- DLTA
 ------------------------------------------------------------------------------
 Cycle:     36
  WF centre and spread    1  ( -1.571723,  0.022779, -0.065584 )     1.21324051
  WF centre and spread    2  ( -1.098885, -0.867516, -0.955687 )     1.21318530
  WF centre and spread    3  (  0.112427, -0.142987, -1.423979 )     1.01034150
  WF centre and spread    4  ( -1.002495, -1.033066, -0.533794 )     1.01037740
  WF centre and spread    5  ( -0.565955, -1.158218, -1.159676 )     0.90813371
  WF centre and spread    6  (  1.456157,  1.512315,  1.510877 )     0.90818008
  WF centre and spread    7  (  0.005066, -1.392027, -0.021288 )     0.96666417
  WF centre and spread    8  ( -0.895336, -0.501857, -0.911553 )     0.96664782
  Sum of centres and spreads ( -3.560745, -3.560576, -3.560684 )     8.19677049
 
     36    -0.561E-02     0.0213863733        8.1967704942       0.81  <-- CONV
        O_D=      0.0701739 O_OD=      1.6812860 O_TOT=      8.1967705 <-- SPRD
 Delta: O_D= -0.8995250E-04 O_OD= -0.5518301E-02 O_TOT= -0.5608253E-02 <-- DLTA
 ------------------------------------------------------------------------------
 Cycle:     37
  WF centre and spread    1  ( -1.573213,  0.027492, -0.065925 )     1.21464845
  WF centre and spread    2  ( -1.097395, -0.862805, -0.956026 )     1.21459017
  WF centre and spread    3  (  0.115385, -0.143148, -1.423617 )     1.00927193
  WF centre and spread    4  ( -1.005448, -1.033223, -0.533431 )     1.00930835
  WF centre and spread    5  ( -0.567839, -1.162652, -1.159933 )     0.90583835
  WF centre and spread    6  (  1.458041,  1.507882,  1.510620 )     0.90588107
  WF centre and spread    7  (  0.001891, -1.392106, -0.021041 )     0.96591709
  WF centre and spread    8  ( -0.892165, -0.501936, -0.911310 )     0.96589626
  Sum of centres and spreads ( -3.560745, -3.560497, -3.560663 )     8.19135168
 
     37    -0.542E-02     0.0210071889        8.1913516797       0.83  <-- CONV
        O_D=      0.0702287 O_OD=      1.6758124 O_TOT=      8.1913517 <-- SPRD
 Delta: O_D=  0.5476196E-04 O_OD= -0.5473577E-02 O_TOT= -0.5418815E-02 <-- DLTA
 ------------------------------------------------------------------------------
 Cycle:     38
  WF centre and spread    1  ( -1.574673,  0.031972, -0.066409 )     1.21556306
  WF centre and spread    2  ( -1.095936, -0.858327, -0.956508 )     1.21550670
  WF centre and spread    3  (  0.118163, -0.143468, -1.423289 )     1.00816484
  WF centre and spread    4  ( -1.008221, -1.033538, -0.533102 )     1.00820463
  WF centre and spread    5  ( -0.569791, -1.166707, -1.160123 )     0.90385891
  WF centre and spread    6  (  1.459993,  1.503828,  1.510430 )     0.90390321
  WF centre and spread    7  ( -0.001254, -1.392184, -0.020693 )     0.96560890
  WF centre and spread    8  ( -0.889025, -0.502014, -0.910964 )     0.96558830
  Sum of centres and spreads ( -3.560745, -3.560438, -3.560657 )     8.18639856
 
     38    -0.495E-02     0.0203076870        8.1863985606       0.84  <-- CONV
        O_D=      0.0705307 O_OD=      1.6705573 O_TOT=      8.1863986 <-- SPRD
 Delta: O_D=  0.3019847E-03 O_OD= -0.5255104E-02 O_TOT= -0.4953119E-02 <-- DLTA
 ------------------------------------------------------------------------------
 Cycle:     39
  WF centre and spread    1  ( -1.576155,  0.036421, -0.067062 )     1.21599514
  WF centre and spread    2  ( -1.094455, -0.853880, -0.957159 )     1.21594583
  WF centre and spread    3  (  0.120915, -0.143962, -1.422964 )     1.00696856
  WF centre and spread    4  ( -1.010969, -1.034029, -0.532775 )     1.00701080
  WF centre and spread    5  ( -0.571871, -1.170567, -1.160275 )     0.90212290
  WF centre and spread    6  (  1.462072,  1.499969,  1.510278 )     0.90217003
  WF centre and spread    7  ( -0.004525, -1.392261, -0.020219 )     0.96573308
  WF centre and spread    8  ( -0.885758, -0.502091, -0.910494 )     0.96571141
  Sum of centres and spreads ( -3.560745, -3.560399, -3.560670 )     8.18165775
 
     39    -0.474E-02     0.0195648281        8.1816577483       0.86  <-- CONV
        O_D=      0.0709969 O_OD=      1.6653503 O_TOT=      8.1816577 <-- SPRD
 Delta: O_D=  0.4661801E-03 O_OD= -0.5206992E-02 O_TOT= -0.4740812E-02 <-- DLTA
 ------------------------------------------------------------------------------
 Cycle:     40
  WF centre and spread    1  ( -1.577638,  0.040801, -0.067885 )     1.21589848
  WF centre and spread    2  ( -1.092971, -0.849504, -0.957980 )     1.21586237
  WF centre and spread    3  (  0.123642, -0.144622, -1.422636 )     1.00571456
  WF centre and spread    4  ( -1.013692, -1.034685, -0.532446 )     1.00575980
  WF centre and spread    5  ( -0.574047, -1.174203, -1.160404 )     0.90063282
  WF centre and spread    6  (  1.464248,  1.496336,  1.510150 )     0.90068656
  WF centre and spread    7  ( -0.007913, -1.392338, -0.019612 )     0.96630165
  WF centre and spread    8  ( -0.882374, -0.502169, -0.909891 )     0.96628386
  Sum of centres and spreads ( -3.560745, -3.560385, -3.560704 )     8.17714011
 
     40    -0.452E-02     0.0192084296        8.1771401070       0.88  <-- CONV
        O_D=      0.0714118 O_OD=      1.6604178 O_TOT=      8.1771401 <-- SPRD
 Delta: O_D=  0.4149018E-03 O_OD= -0.4932543E-02 O_TOT= -0.4517641E-02 <-- DLTA
 ------------------------------------------------------------------------------
 Cycle:     41
  WF centre and spread    1  ( -1.579120,  0.045128, -0.068889 )     1.21525257
  WF centre and spread    2  ( -1.091489, -0.845179, -0.958981 )     1.21522344
  WF centre and spread    3  (  0.126378, -0.145452, -1.422298 )     1.00441238
  WF centre and spread    4  ( -1.016423, -1.035512, -0.532107 )     1.00446278
  WF centre and spread    5  ( -0.576313, -1.177631, -1.160525 )     0.89939243
  WF centre and spread    6  (  1.466514,  1.492910,  1.510030 )     0.89945308
  WF centre and spread    7  ( -0.011449, -1.392416, -0.018853 )     0.96730839
  WF centre and spread    8  ( -0.878843, -0.502247, -0.909137 )     0.96729821
  Sum of centres and spreads ( -3.560745, -3.560399, -3.560761 )     8.17280328
 
     41    -0.434E-02     0.0187818859        8.1728032823       0.90  <-- CONV
        O_D=      0.0717260 O_OD=      1.6557667 O_TOT=      8.1728033 <-- SPRD
 Delta: O_D=  0.3142694E-03 O_OD= -0.4651094E-02 O_TOT= -0.4336825E-02 <-- DLTA
 ------------------------------------------------------------------------------
 Cycle:     42
  WF centre and spread    1  ( -1.580640,  0.049532, -0.070114 )     1.21402449
  WF centre and spread    2  ( -1.089967, -0.840778, -0.960203 )     1.21400479
  WF centre and spread    3  (  0.129221, -0.146479, -1.421938 )     1.00303549
  WF centre and spread    4  ( -1.019262, -1.036536, -0.531744 )     1.00308769
  WF centre and spread    5  ( -0.578728, -1.180949, -1.160654 )     0.89838549
  WF centre and spread    6  (  1.468930,  1.489595,  1.509901 )     0.89845175
  WF centre and spread    7  ( -0.015256, -1.392498, -0.017898 )     0.96875810
  WF centre and spread    8  ( -0.875042, -0.502329, -0.908189 )     0.96875205
  Sum of centres and spreads ( -3.560744, -3.560440, -3.560840 )     8.16849987
 
     42    -0.430E-02     0.0185248752        8.1684998673       0.91  <-- CONV
        O_D=      0.0720398 O_OD=      1.6511494 O_TOT=      8.1684999 <-- SPRD
 Delta: O_D=  0.3138093E-03 O_OD= -0.4617224E-02 O_TOT= -0.4303415E-02 <-- DLTA
 ------------------------------------------------------------------------------
 Cycle:     43
  WF centre and spread    1  ( -1.582322,  0.054351, -0.071678 )     1.21207883
  WF centre and spread    2  ( -1.088282, -0.835962, -0.961765 )     1.21207603
  WF centre and spread    3  (  0.132422, -0.147792, -1.421535 )     1.00149730
  WF centre and spread    4  ( -1.022458, -1.037846, -0.531339 )     1.00154705
  WF centre and spread    5  ( -0.581496, -1.184393, -1.160805 )     0.89756477
  WF centre and spread    6  (  1.471698,  1.486155,  1.509752 )     0.89763728
  WF centre and spread    7  ( -0.019671, -1.392595, -0.016637 )     0.97073897
  WF centre and spread    8  ( -0.870633, -0.502426, -0.906935 )     0.97073529
  Sum of centres and spreads ( -3.560744, -3.560509, -3.560942 )     8.16387552
 
     43    -0.462E-02     0.0186943574        8.1638755249       0.93  <-- CONV
        O_D=      0.0724229 O_OD=      1.6461420 O_TOT=      8.1638755 <-- SPRD
 Delta: O_D=  0.3830778E-03 O_OD= -0.5007420E-02 O_TOT= -0.4624342E-02 <-- DLTA
 ------------------------------------------------------------------------------
 Cycle:     44
  WF centre and spread    1  ( -1.584239,  0.059732, -0.073671 )     1.20930214
  WF centre and spread    2  ( -1.086363, -0.830584, -0.963753 )     1.20931753
  WF centre and spread    3  (  0.136122, -0.149439, -1.421100 )     0.99975957
  WF centre and spread    4  ( -1.026153, -1.039490, -0.530901 )     0.99980926
  WF centre and spread    5  ( -0.584748, -1.188042, -1.160970 )     0.89693393
  WF centre and spread    6  (  1.474949,  1.482510,  1.509588 )     0.89701056
  WF centre and spread    7  ( -0.024908, -1.392729, -0.014977 )     0.97330672
  WF centre and spread    8  ( -0.865404, -0.502560, -0.905285 )     0.97330692
  Sum of centres and spreads ( -3.560743, -3.560601, -3.561070 )     8.15874663
 
     44    -0.513E-02     0.0196813838        8.1587466330       0.95  <-- CONV
        O_D=      0.0727621 O_OD=      1.6406739 O_TOT=      8.1587466 <-- SPRD
 Delta: O_D=  0.3391757E-03 O_OD= -0.5468068E-02 O_TOT= -0.5128892E-02 <-- DLTA
 ------------------------------------------------------------------------------
 Cycle:     45
  WF centre and spread    1  ( -1.586346,  0.065509, -0.076078 )     1.20577056
  WF centre and spread    2  ( -1.084250, -0.824809, -0.966154 )     1.20580063
  WF centre and spread    3  (  0.140259, -0.151376, -1.420677 )     0.99787797
  WF centre and spread    4  ( -1.030285, -1.041422, -0.530475 )     0.99793250
  WF centre and spread    5  ( -0.588438, -1.191748, -1.161129 )     0.89654514
  WF centre and spread    6  (  1.478638,  1.478809,  1.509431 )     0.89661727
  WF centre and spread    7  ( -0.030900, -1.392920, -0.012907 )     0.97633553
  WF centre and spread    8  ( -0.859421, -0.502752, -0.903226 )     0.97634204
  Sum of centres and spreads ( -3.560744, -3.560709, -3.561216 )     8.15322165
 
     45    -0.552E-02     0.0205709302        8.1532216459       0.97  <-- CONV
        O_D=      0.0730241 O_OD=      1.6348870 O_TOT=      8.1532216 <-- SPRD
 Delta: O_D=  0.2619665E-03 O_OD= -0.5786954E-02 O_TOT= -0.5524987E-02 <-- DLTA
 ------------------------------------------------------------------------------
 Cycle:     46
  WF centre and spread    1  ( -1.588642,  0.071657, -0.078931 )     1.20153917
  WF centre and spread    2  ( -1.081950, -0.818663, -0.969000 )     1.20157797
  WF centre and spread    3  (  0.144868, -0.153596, -1.420300 )     0.99586431
  WF centre and spread    4  ( -1.034889, -1.043639, -0.530095 )     0.99593007
  WF centre and spread    5  ( -0.592601, -1.195462, -1.161263 )     0.89642443
  WF centre and spread    6  (  1.482799,  1.475101,  1.509298 )     0.89647858
  WF centre and spread    7  ( -0.037716, -1.393194, -0.010375 )     0.97971927
  WF centre and spread    8  ( -0.852615, -0.503026, -0.900705 )     0.97973545
  Sum of centres and spreads ( -3.560745, -3.560822, -3.561372 )     8.14726925
 
     46    -0.595E-02     0.0214978410        8.1472692507       0.98  <-- CONV
        O_D=      0.0732396 O_OD=      1.6287190 O_TOT=      8.1472693 <-- SPRD
 Delta: O_D=  0.2155758E-03 O_OD= -0.6167971E-02 O_TOT= -0.5952395E-02 <-- DLTA
 ------------------------------------------------------------------------------
 Cycle:     47
  WF centre and spread    1  ( -1.590876,  0.077564, -0.081973 )     1.19705068
  WF centre and spread    2  ( -1.079709, -0.812756, -0.972035 )     1.19709528
  WF centre and spread    3  (  0.149522, -0.155889, -1.420028 )     0.99390365
  WF centre and spread    4  ( -1.039538, -1.045927, -0.529820 )     0.99397914
  WF centre and spread    5  ( -0.596826, -1.198793, -1.161358 )     0.89659575
  WF centre and spread    6  (  1.487022,  1.471775,  1.509204 )     0.89663471
  WF centre and spread    7  ( -0.044734, -1.393532, -0.007582 )     0.98307956
  WF centre and spread    8  ( -0.845606, -0.503364, -0.897924 )     0.98310737
  Sum of centres and spreads ( -3.560745, -3.560923, -3.561515 )     8.14144614
 
     47    -0.582E-02     0.0218908364        8.1414461396       1.00  <-- CONV
        O_D=      0.0733706 O_OD=      1.6227649 O_TOT=      8.1414461 <-- SPRD
 Delta: O_D=  0.1309914E-03 O_OD= -0.5954102E-02 O_TOT= -0.5823111E-02 <-- DLTA
 ------------------------------------------------------------------------------
 Cycle:     48
  WF centre and spread    1  ( -1.592907,  0.082996, -0.085081 )     1.19255176
  WF centre and spread    2  ( -1.077673, -0.807326, -0.975135 )     1.19259642
  WF centre and spread    3  (  0.154027, -0.158188, -1.419869 )     0.99204146
  WF centre and spread    4  ( -1.044037, -1.048222, -0.529657 )     0.99212100
  WF centre and spread    5  ( -0.600881, -1.201600, -1.161429 )     0.89703822
  WF centre and spread    6  (  1.491076,  1.468972,  1.509133 )     0.89706460
  WF centre and spread    7  ( -0.051655, -1.393904, -0.004624 )     0.98627442
  WF centre and spread    8  ( -0.838695, -0.503735, -0.894977 )     0.98631065
  Sum of centres and spreads ( -3.560744, -3.561007, -3.561638 )     8.13599854
 
     48    -0.545E-02     0.0210770975        8.1359985440       1.01  <-- CONV
        O_D=      0.0733766 O_OD=      1.6173114 O_TOT=      8.1359985 <-- SPRD
 Delta: O_D=  0.5949341E-05 O_OD= -0.5453545E-02 O_TOT= -0.5447596E-02 <-- DLTA
 ------------------------------------------------------------------------------
 Cycle:     49
  WF centre and spread    1  ( -1.594767,  0.088176, -0.088369 )     1.18791640
  WF centre and spread    2  ( -1.075806, -0.802146, -0.978415 )     1.18796324
  WF centre and spread    3  (  0.158552, -0.160600, -1.419811 )     0.99018336
  WF centre and spread    4  ( -1.048557, -1.050629, -0.529594 )     0.99026551
  WF centre and spread    5  ( -0.604874, -1.204006, -1.161500 )     0.89775710
  WF centre and spread    6  (  1.495067,  1.466569,  1.509061 )     0.89777936
  WF centre and spread    7  ( -0.058722, -1.394311, -0.001381 )     0.98940203
  WF centre and spread    8  ( -0.831637, -0.504141, -0.891746 )     0.98944920
  Sum of centres and spreads ( -3.560744, -3.561089, -3.561755 )     8.13071621
 
     49    -0.528E-02     0.0207347034        8.1307162089       1.03  <-- CONV
        O_D=      0.0734080 O_OD=      1.6119976 O_TOT=      8.1307162 <-- SPRD
 Delta: O_D=  0.3145337E-04 O_OD= -0.5313789E-02 O_TOT= -0.5282335E-02 <-- DLTA
 ------------------------------------------------------------------------------
 Cycle:     50
  WF centre and spread    1  ( -1.596417,  0.093143, -0.091858 )     1.18315420
  WF centre and spread    2  ( -1.074149, -0.797179, -0.981896 )     1.18320803
  WF centre and spread    3  (  0.163120, -0.163156, -1.419854 )     0.98830868
  WF centre and spread    4  ( -1.053122, -1.053181, -0.529632 )     0.98839308
  WF centre and spread    5  ( -0.608781, -1.206030, -1.161591 )     0.89871433
  WF centre and spread    6  (  1.498973,  1.464547,  1.508967 )     0.89873963
  WF centre and spread    7  ( -0.065962, -1.394746,  0.002183 )     0.99249684
  WF centre and spread    8  ( -0.824407, -0.504575, -0.888194 )     0.99255884
  Sum of centres and spreads ( -3.560744, -3.561178, -3.561875 )     8.12557363
 
     50    -0.514E-02     0.0203846600        8.1255736283       1.05  <-- CONV
        O_D=      0.0734982 O_OD=      1.6067649 O_TOT=      8.1255736 <-- SPRD
 Delta: O_D=  0.9013947E-04 O_OD= -0.5232720E-02 O_TOT= -0.5142581E-02 <-- DLTA
 ------------------------------------------------------------------------------
 Cycle:     51
  WF centre and spread    1  ( -1.597832,  0.097972, -0.095591 )     1.17825323
  WF centre and spread    2  ( -1.072726, -0.792349, -0.985621 )     1.17830848
  WF centre and spread    3  (  0.167797, -0.165902, -1.420001 )     0.98638898
  WF centre and spread    4  ( -1.057794, -1.055923, -0.529774 )     0.98647233
  WF centre and spread    5  ( -0.612605, -1.207702, -1.161726 )     0.89988385
  WF centre and spread    6  (  1.502795,  1.462877,  1.508831 )     0.89991094
  WF centre and spread    7  ( -0.073450, -1.395213,  0.006135 )     0.99560835
  WF centre and spread    8  ( -0.816929, -0.505040, -0.884254 )     0.99568503
  Sum of centres and spreads ( -3.560744, -3.561280, -3.562002 )     8.12051120
 
     51    -0.506E-02     0.0200851555        8.1205111959       1.07  <-- CONV
        O_D=      0.0736631 O_OD=      1.6015375 O_TOT=      8.1205112 <-- SPRD
 Delta: O_D=  0.1649447E-03 O_OD= -0.5227377E-02 O_TOT= -0.5062432E-02 <-- DLTA
 ------------------------------------------------------------------------------
 Cycle:     52
  WF centre and spread    1  ( -1.599021,  0.102881, -0.099722 )     1.17309111
  WF centre and spread    2  ( -1.071528, -0.787439, -0.989743 )     1.17314700
  WF centre and spread    3  (  0.172790, -0.168959, -1.420272 )     0.98432530
  WF centre and spread    4  ( -1.062785, -1.058978, -0.530040 )     0.98440258
  WF centre and spread    5  ( -0.616463, -1.209088, -1.161926 )     0.90128767
  WF centre and spread    6  (  1.506652,  1.461493,  1.508629 )     0.90131693
  WF centre and spread    7  ( -0.081499, -1.395739,  0.010670 )     0.99882871
  WF centre and spread    8  ( -0.808890, -0.505564, -0.879733 )     0.99891802
  Sum of centres and spreads ( -3.560744, -3.561394, -3.562138 )     8.11531732
 
     52    -0.519E-02     0.0202256196        8.1153173153       1.08  <-- CONV
        O_D=      0.0739543 O_OD=      1.5960524 O_TOT=      8.1153173 <-- SPRD
 Delta: O_D=  0.2911631E-03 O_OD= -0.5485044E-02 O_TOT= -0.5193881E-02 <-- DLTA
 ------------------------------------------------------------------------------
 Cycle:     53
  WF centre and spread    1  ( -1.600085,  0.108619, -0.104927 )     1.16692366
  WF centre and spread    2  ( -1.070452, -0.781700, -0.994939 )     1.16698589
  WF centre and spread    3  (  0.178931, -0.172816, -1.420766 )     0.98174929
  WF centre and spread    4  ( -1.068922, -1.062832, -0.530527 )     0.98181743
  WF centre and spread    5  ( -0.620929, -1.210335, -1.162232 )     0.90317191
  WF centre and spread    6  (  1.511116,  1.460247,  1.508320 )     0.90319491
  WF centre and spread    7  ( -0.091434, -1.396446,  0.016599 )     1.00260874
  WF centre and spread    8  ( -0.798969, -0.506270, -0.873822 )     1.00271322
  Sum of centres and spreads ( -3.560744, -3.561533, -3.562295 )     8.10916506
 
     53    -0.615E-02     0.0210524636        8.1091650556       1.10  <-- CONV
        O_D=      0.0744787 O_OD=      1.5893758 O_TOT=      8.1091651 <-- SPRD
 Delta: O_D=  0.5243811E-03 O_OD= -0.6676641E-02 O_TOT= -0.6152260E-02 <-- DLTA
 ------------------------------------------------------------------------------
 Cycle:     54
  WF centre and spread    1  ( -1.601005,  0.115671, -0.111772 )     1.15922841
  WF centre and spread    2  ( -1.069516, -0.774647, -1.001772 )     1.15929833
  WF centre and spread    3  (  0.186939, -0.177820, -1.421678 )     0.97835869
  WF centre and spread    4  ( -1.076927, -1.067834, -0.531430 )     0.97841686
  WF centre and spread    5  ( -0.626459, -1.211407, -1.162665 )     0.90576554
  WF centre and spread    6  (  1.516642,  1.459177,  1.507883 )     0.90577032
  WF centre and spread    7  ( -0.104424, -1.397511,  0.024700 )     1.00720485
  WF centre and spread    8  ( -0.785996, -0.507330, -0.865743 )     1.00733011
  Sum of centres and spreads ( -3.560745, -3.561702, -3.562478 )     8.10137310
 
     54    -0.779E-02     0.0235643214        8.1013730962       1.12  <-- CONV
        O_D=      0.0752585 O_OD=      1.5808040 O_TOT=      8.1013731 <-- SPRD
 Delta: O_D=  0.7798888E-03 O_OD= -0.8571848E-02 O_TOT= -0.7791959E-02 <-- DLTA
 ------------------------------------------------------------------------------
 Cycle:     55
  WF centre and spread    1  ( -1.601643,  0.124248, -0.120672 )     1.14976580
  WF centre and spread    2  ( -1.068856, -0.766070, -1.010658 )     1.14985715
  WF centre and spread    3  (  0.197430, -0.184133, -1.423335 )     0.97392566
  WF centre and spread    4  ( -1.087413, -1.074147, -0.533076 )     0.97397402
  WF centre and spread    5  ( -0.633413, -1.212080, -1.163215 )     0.90929218
  WF centre and spread    6  (  1.523592,  1.458504,  1.507327 )     0.90929134
  WF centre and spread    7  ( -0.121508, -1.399203,  0.035707 )     1.01255738
  WF centre and spread    8  ( -0.768933, -0.509015, -0.854766 )     1.01270728
  Sum of centres and spreads ( -3.560745, -3.561896, -3.562688 )     8.09137080
 
     55    -0.100E-01     0.0267005575        8.0913707982       1.13  <-- CONV
        O_D=      0.0764947 O_OD=      1.5695655 O_TOT=      8.0913708 <-- SPRD
 Delta: O_D=  0.1236205E-02 O_OD= -0.1123850E-01 O_TOT= -0.1000230E-01 <-- DLTA
 ------------------------------------------------------------------------------
 Cycle:     56
  WF centre and spread    1  ( -1.601746,  0.133668, -0.131168 )     1.13934455
  WF centre and spread    2  ( -1.068727, -0.756650, -1.021138 )     1.13947541
  WF centre and spread    3  (  0.210090, -0.191215, -1.426054 )     0.96868564
  WF centre and spread    4  ( -1.100069, -1.081230, -0.535781 )     0.96873227
  WF centre and spread    5  ( -0.641539, -1.211960, -1.163798 )     0.91369048
  WF centre and spread    6  (  1.531713,  1.458626,  1.506737 )     0.91367841
  WF centre and spread    7  ( -0.142252, -1.401767,  0.049400 )     1.01782172
  WF centre and spread    8  ( -0.748214, -0.511569, -0.841110 )     1.01800239
  Sum of centres and spreads ( -3.560745, -3.562097, -3.562913 )     8.07943085
 
     56    -0.119E-01     0.0299719185        8.0794308543       1.15  <-- CONV
        O_D=      0.0782069 O_OD=      1.5559134 O_TOT=      8.0794309 <-- SPRD
 Delta: O_D=  0.1712133E-02 O_OD= -0.1365208E-01 O_TOT= -0.1193994E-01 <-- DLTA
 ------------------------------------------------------------------------------
 Cycle:     57
  WF centre and spread    1  ( -1.601126,  0.142746, -0.142075 )     1.12951540
  WF centre and spread    2  ( -1.069320, -0.747573, -1.032029 )     1.12968708
  WF centre and spread    3  (  0.223727, -0.198064, -1.429910 )     0.96323161
  WF centre and spread    4  ( -1.113704, -1.088085, -0.539622 )     0.96327823
  WF centre and spread    5  ( -0.650038, -1.210780, -1.164310 )     0.91854481
  WF centre and spread    6  (  1.540205,  1.459807,  1.506219 )     0.91849608
  WF centre and spread    7  ( -0.164779, -1.405273,  0.064567 )     1.02179810
  WF centre and spread    8  ( -0.725711, -0.515064, -0.825981 )     1.02201768
  Sum of centres and spreads ( -3.560746, -3.562286, -3.563141 )     8.06656899
 
     57    -0.129E-01     0.0321416112        8.0665689851       1.17  <-- CONV
        O_D=      0.0802926 O_OD=      1.5409658 O_TOT=      8.0665690 <-- SPRD
 Delta: O_D=  0.2085701E-02 O_OD= -0.1494757E-01 O_TOT= -0.1286187E-01 <-- DLTA
 ------------------------------------------------------------------------------
 Cycle:     58
  WF centre and spread    1  ( -1.599714,  0.151168, -0.152980 )     1.12090121
  WF centre and spread    2  ( -1.070705, -0.739156, -1.042921 )     1.12110798
  WF centre and spread    3  (  0.238053, -0.204271, -1.435076 )     0.95772722
  WF centre and spread    4  ( -1.128030, -1.094300, -0.544771 )     0.95776962
  WF centre and spread    5  ( -0.658708, -1.208413, -1.164716 )     0.92363799
  WF centre and spread    6  (  1.548868,  1.462176,  1.505806 )     0.92354966
  WF centre and spread    7  ( -0.188649, -1.409946,  0.080932 )     1.02396681
  WF centre and spread    8  ( -0.701862, -0.519723, -0.809656 )     1.02424065
  Sum of centres and spreads ( -3.560747, -3.562466, -3.563381 )     8.05290113
 
     58    -0.137E-01     0.0334661894        8.0529011331       1.18  <-- CONV
        O_D=      0.0823538 O_OD=      1.5252368 O_TOT=      8.0529011 <-- SPRD
 Delta: O_D=  0.2061186E-02 O_OD= -0.1572904E-01 O_TOT= -0.1366785E-01 <-- DLTA
 ------------------------------------------------------------------------------
 Cycle:     59
  WF centre and spread    1  ( -1.597618,  0.158446, -0.163057 )     1.11423742
  WF centre and spread    2  ( -1.072777, -0.731884, -1.052988 )     1.11447707
  WF centre and spread    3  (  0.252170, -0.209271, -1.441377 )     0.95257712
  WF centre and spread    4  ( -1.142150, -1.099313, -0.551055 )     0.95261168
  WF centre and spread    5  ( -0.666988, -1.204978, -1.164999 )     0.92858032
  WF centre and spread    6  (  1.557139,  1.465614,  1.505517 )     0.92847243
  WF centre and spread    7  ( -0.212341, -1.415743,  0.097483 )     1.02392411
  WF centre and spread    8  ( -0.678184, -0.525503, -0.793143 )     1.02425560
  Sum of centres and spreads ( -3.560748, -3.562633, -3.563620 )     8.03913574
 
     59    -0.138E-01     0.0343068615        8.0391357447       1.20  <-- CONV
        O_D=      0.0840128 O_OD=      1.5098124 O_TOT=      8.0391357 <-- SPRD
[...]
  WF centre and spread    2  ( -1.170010, -0.610367, -1.170008 )     0.93994961
  WF centre and spread    3  (  0.279821, -0.279822, -1.500548 )     0.93993741
  WF centre and spread    4  ( -1.170007, -1.170009, -0.610361 )     0.93993744
  WF centre and spread    5  ( -0.610365, -1.170009, -1.170009 )     0.93993638
  WF centre and spread    6  (  1.500551,  1.500550,  1.500550 )     0.93993640
  WF centre and spread    7  ( -0.279823, -1.500548,  0.279820 )     0.93994711
  WF centre and spread    8  ( -0.610363, -0.610361, -0.610367 )     0.93994708
  Sum of centres and spreads ( -3.560745, -3.560745, -3.560745 )     7.51954098
 
    344    -0.300E-09     0.0000105792        7.5195409805       6.18  <-- CONV
        O_D=      0.0848619 O_OD=      0.9893685 O_TOT=      7.5195410 <-- SPRD
 Delta: O_D=  0.3299972E-08 O_OD= -0.3599480E-08 O_TOT= -0.2995080E-09 <-- DLTA
 ------------------------------------------------------------------------------
 Cycle:    345
  WF centre and spread    1  ( -1.500549,  0.279819, -0.279822 )     0.93994955
  WF centre and spread    2  ( -1.170010, -0.610367, -1.170008 )     0.93994961
  WF centre and spread    3  (  0.279821, -0.279822, -1.500548 )     0.93993741
  WF centre and spread    4  ( -1.170007, -1.170009, -0.610361 )     0.93993744
  WF centre and spread    5  ( -0.610365, -1.170009, -1.170009 )     0.93993638
  WF centre and spread    6  (  1.500551,  1.500550,  1.500550 )     0.93993640
  WF centre and spread    7  ( -0.279823, -1.500548,  0.279820 )     0.93994711
  WF centre and spread    8  ( -0.610363, -0.610361, -0.610367 )     0.93994708
  Sum of centres and spreads ( -3.560745, -3.560745, -3.560745 )     7.51954098
 
    345    -0.179E-11     0.0000103415        7.5195409805       6.19  <-- CONV
        O_D=      0.0848619 O_OD=      0.9893685 O_TOT=      7.5195410 <-- SPRD
 Delta: O_D=  0.1732520E-10 O_OD= -0.1911549E-10 O_TOT= -0.1789680E-11 <-- DLTA
 ------------------------------------------------------------------------------
 Cycle:    346
  WF centre and spread    1  ( -1.500549,  0.279820, -0.279822 )     0.93994945
  WF centre and spread    2  ( -1.170010, -0.610367, -1.170008 )     0.93994951
  WF centre and spread    3  (  0.279821, -0.279822, -1.500548 )     0.93993745
  WF centre and spread    4  ( -1.170007, -1.170009, -0.610361 )     0.93993748
  WF centre and spread    5  ( -0.610365, -1.170009, -1.170009 )     0.93993640
  WF centre and spread    6  (  1.500551,  1.500550,  1.500550 )     0.93993641
  WF centre and spread    7  ( -0.279823, -1.500548,  0.279820 )     0.93994715
  WF centre and spread    8  ( -0.610363, -0.610361, -0.610367 )     0.93994713
  Sum of centres and spreads ( -3.560745, -3.560745, -3.560745 )     7.51954098
 
    346    -0.597E-09     0.0000103364        7.5195409799       6.20  <-- CONV
        O_D=      0.0848619 O_OD=      0.9893685 O_TOT=      7.5195410 <-- SPRD
 Delta: O_D=  0.5935666E-08 O_OD= -0.6533050E-08 O_TOT= -0.5973853E-09 <-- DLTA
 ------------------------------------------------------------------------------
 Cycle:    347
  WF centre and spread    1  ( -1.500549,  0.279820, -0.279822 )     0.93994945
  WF centre and spread    2  ( -1.170010, -0.610367, -1.170008 )     0.93994951
  WF centre and spread    3  (  0.279821, -0.279822, -1.500548 )     0.93993745
  WF centre and spread    4  ( -1.170007, -1.170009, -0.610361 )     0.93993748
  WF centre and spread    5  ( -0.610365, -1.170009, -1.170009 )     0.93993640
  WF centre and spread    6  (  1.500551,  1.500550,  1.500550 )     0.93993641
  WF centre and spread    7  ( -0.279823, -1.500548,  0.279820 )     0.93994715
  WF centre and spread    8  ( -0.610363, -0.610361, -0.610367 )     0.93994713
  Sum of centres and spreads ( -3.560745, -3.560745, -3.560745 )     7.51954098
 
    347    -0.151E-11     0.0000082625        7.5195409799       6.21  <-- CONV
        O_D=      0.0848619 O_OD=      0.9893685 O_TOT=      7.5195410 <-- SPRD
 Delta: O_D=  0.1648628E-10 O_OD= -0.1799183E-10 O_TOT= -0.1505462E-11 <-- DLTA
 ------------------------------------------------------------------------------
 Cycle:    348
  WF centre and spread    1  ( -1.500549,  0.279820, -0.279822 )     0.93994945
  WF centre and spread    2  ( -1.170010, -0.610367, -1.170008 )     0.93994950
  WF centre and spread    3  (  0.279821, -0.279822, -1.500548 )     0.93993745
  WF centre and spread    4  ( -1.170007, -1.170009, -0.610361 )     0.93993748
  WF centre and spread    5  ( -0.610365, -1.170009, -1.170009 )     0.93993640
  WF centre and spread    6  (  1.500551,  1.500550,  1.500550 )     0.93993641
  WF centre and spread    7  ( -0.279823, -1.500548,  0.279820 )     0.93994715
  WF centre and spread    8  ( -0.610363, -0.610361, -0.610367 )     0.93994713
  Sum of centres and spreads ( -3.560745, -3.560745, -3.560745 )     7.51954098
 
    348    -0.192E-11     0.0000082579        7.5195409799       6.22  <-- CONV
        O_D=      0.0848619 O_OD=      0.9893685 O_TOT=      7.5195410 <-- SPRD
 Delta: O_D=  0.1973459E-10 O_OD= -0.2165323E-10 O_TOT= -0.1918465E-11 <-- DLTA
 ------------------------------------------------------------------------------
 Cycle:    349
  WF centre and spread    1  ( -1.500549,  0.279820, -0.279822 )     0.93994945
  WF centre and spread    2  ( -1.170010, -0.610367, -1.170008 )     0.93994950
  WF centre and spread    3  (  0.279821, -0.279822, -1.500548 )     0.93993745
  WF centre and spread    4  ( -1.170007, -1.170009, -0.610361 )     0.93993748
  WF centre and spread    5  ( -0.610365, -1.170009, -1.170009 )     0.93993640
  WF centre and spread    6  (  1.500551,  1.500550,  1.500550 )     0.93993641
  WF centre and spread    7  ( -0.279823, -1.500548,  0.279820 )     0.93994715
  WF centre and spread    8  ( -0.610363, -0.610361, -0.610367 )     0.93994713
  Sum of centres and spreads ( -3.560745, -3.560745, -3.560745 )     7.51954098
 
    349    -0.233E-11     0.0000082510        7.5195409799       6.23  <-- CONV
        O_D=      0.0848619 O_OD=      0.9893685 O_TOT=      7.5195410 <-- SPRD
 Delta: O_D=  0.2296907E-10 O_OD= -0.2529388E-10 O_TOT= -0.2325251E-11 <-- DLTA
 ------------------------------------------------------------------------------
 Cycle:    350
  WF centre and spread    1  ( -1.500549,  0.279820, -0.279822 )     0.93994923
  WF centre and spread    2  ( -1.170010, -0.610367, -1.170008 )     0.93994929
  WF centre and spread    3  (  0.279821, -0.279822, -1.500548 )     0.93993753
  WF centre and spread    4  ( -1.170007, -1.170009, -0.610361 )     0.93993756
  WF centre and spread    5  ( -0.610365, -1.170009, -1.170009 )     0.93993645
  WF centre and spread    6  (  1.500551,  1.500550,  1.500550 )     0.93993646
  WF centre and spread    7  ( -0.279823, -1.500548,  0.279820 )     0.93994724
  WF centre and spread    8  ( -0.610363, -0.610361, -0.610367 )     0.93994722
  Sum of centres and spreads ( -3.560745, -3.560745, -3.560745 )     7.51954098
 
    350    -0.898E-09     0.0000082420        7.5195409790       6.24  <-- CONV
        O_D=      0.0848619 O_OD=      0.9893685 O_TOT=      7.5195410 <-- SPRD
 Delta: O_D=  0.1320142E-07 O_OD= -0.1409904E-07 O_TOT= -0.8976171E-09 <-- DLTA
 ------------------------------------------------------------------------------
 Cycle:    351
  WF centre and spread    1  ( -1.500549,  0.279820, -0.279822 )     0.93994912
  WF centre and spread    2  ( -1.170010, -0.610367, -1.170008 )     0.93994917
  WF centre and spread    3  (  0.279821, -0.279822, -1.500548 )     0.93993758
  WF centre and spread    4  ( -1.170007, -1.170009, -0.610361 )     0.93993761
  WF centre and spread    5  ( -0.610364, -1.170009, -1.170009 )     0.93993647
  WF centre and spread    6  (  1.500551,  1.500550,  1.500550 )     0.93993648
  WF centre and spread    7  ( -0.279823, -1.500548,  0.279820 )     0.93994728
  WF centre and spread    8  ( -0.610363, -0.610361, -0.610367 )     0.93994726
  Sum of centres and spreads ( -3.560745, -3.560745, -3.560745 )     7.51954098
 
    351    -0.221E-09     0.0000083785        7.5195409788       6.26  <-- CONV
        O_D=      0.0848619 O_OD=      0.9893685 O_TOT=      7.5195410 <-- SPRD
 Delta: O_D=  0.7020996E-08 O_OD= -0.7242162E-08 O_TOT= -0.2211662E-09 <-- DLTA
 ------------------------------------------------------------------------------
 Cycle:    352
  WF centre and spread    1  ( -1.500549,  0.279820, -0.279822 )     0.93994898
  WF centre and spread    2  ( -1.170010, -0.610367, -1.170008 )     0.93994903
  WF centre and spread    3  (  0.279821, -0.279822, -1.500548 )     0.93993763
  WF centre and spread    4  ( -1.170007, -1.170009, -0.610361 )     0.93993766
  WF centre and spread    5  ( -0.610364, -1.170009, -1.170009 )     0.93993651
  WF centre and spread    6  (  1.500551,  1.500550,  1.500550 )     0.93993652
  WF centre and spread    7  ( -0.279823, -1.500548,  0.279820 )     0.93994734
  WF centre and spread    8  ( -0.610363, -0.610361, -0.610367 )     0.93994732
  Sum of centres and spreads ( -3.560745, -3.560745, -3.560745 )     7.51954098
 
    352    -0.202E-09     0.0000105380        7.5195409786       6.28  <-- CONV
        O_D=      0.0848619 O_OD=      0.9893685 O_TOT=      7.5195410 <-- SPRD
 Delta: O_D=  0.9035089E-08 O_OD= -0.9236591E-08 O_TOT= -0.2015010E-09 <-- DLTA
 ------------------------------------------------------------------------------
 Cycle:    353
  WF centre and spread    1  ( -1.500549,  0.279820, -0.279822 )     0.93994879
  WF centre and spread    2  ( -1.170010, -0.610367, -1.170008 )     0.93994883
  WF centre and spread    3  (  0.279821, -0.279822, -1.500548 )     0.93993770
  WF centre and spread    4  ( -1.170007, -1.170009, -0.610361 )     0.93993773
  WF centre and spread    5  ( -0.610364, -1.170009, -1.170009 )     0.93993656
  WF centre and spread    6  (  1.500551,  1.500550,  1.500550 )     0.93993656
  WF centre and spread    7  ( -0.279823, -1.500548,  0.279820 )     0.93994741
  WF centre and spread    8  ( -0.610363, -0.610361, -0.610367 )     0.93994739
  Sum of centres and spreads ( -3.560745, -3.560745, -3.560745 )     7.51954098
 
    353    -0.177E-09     0.0000126255        7.5195409784       6.29  <-- CONV
        O_D=      0.0848619 O_OD=      0.9893685 O_TOT=      7.5195410 <-- SPRD
 Delta: O_D=  0.1175458E-07 O_OD= -0.1193179E-07 O_TOT= -0.1772085E-09 <-- DLTA
 ------------------------------------------------------------------------------
 Cycle:    354
  WF centre and spread    1  ( -1.500549,  0.279820, -0.279822 )     0.93994850
  WF centre and spread    2  ( -1.170010, -0.610367, -1.170008 )     0.93994854
  WF centre and spread    3  (  0.279821, -0.279822, -1.500548 )     0.93993781
  WF centre and spread    4  ( -1.170007, -1.170009, -0.610361 )     0.93993784
  WF centre and spread    5  ( -0.610364, -1.170009, -1.170009 )     0.93993663
  WF centre and spread    6  (  1.500551,  1.500550,  1.500550 )     0.93993663
  WF centre and spread    7  ( -0.279823, -1.500548,  0.279820 )     0.93994752
  WF centre and spread    8  ( -0.610363, -0.610361, -0.610367 )     0.93994750
  Sum of centres and spreads ( -3.560745, -3.560745, -3.560745 )     7.51954098
 
    354    -0.101E-09     0.0000144122        7.5195409783       6.31  <-- CONV
        O_D=      0.0848619 O_OD=      0.9893685 O_TOT=      7.5195410 <-- SPRD
 Delta: O_D=  0.1804156E-07 O_OD= -0.1814228E-07 O_TOT= -0.1007185E-09 <-- DLTA
 ------------------------------------------------------------------------------
 Cycle:    355
  WF centre and spread    1  ( -1.500549,  0.279820, -0.279822 )     0.93994843
  WF centre and spread    2  ( -1.170010, -0.610367, -1.170008 )     0.93994847
  WF centre and spread    3  (  0.279821, -0.279822, -1.500547 )     0.93993784
  WF centre and spread    4  ( -1.170007, -1.170009, -0.610361 )     0.93993786
  WF centre and spread    5  ( -0.610364, -1.170009, -1.170009 )     0.93993665
  WF centre and spread    6  (  1.500551,  1.500550,  1.500550 )     0.93993665
  WF centre and spread    7  ( -0.279823, -1.500548,  0.279820 )     0.93994754
  WF centre and spread    8  ( -0.610363, -0.610361, -0.610367 )     0.93994753
  Sum of centres and spreads ( -3.560745, -3.560745, -3.560745 )     7.51954098
 
    355    -0.134E-10     0.0000161136        7.5195409783       6.32  <-- CONV
        O_D=      0.0848619 O_OD=      0.9893685 O_TOT=      7.5195410 <-- SPRD
 Delta: O_D=  0.4162432E-08 O_OD= -0.4175876E-08 O_TOT= -0.1344436E-10 <-- DLTA
 ------------------------------------------------------------------------------
 Cycle:    356
  WF centre and spread    1  ( -1.500549,  0.279820, -0.279822 )     0.93994824
  WF centre and spread    2  ( -1.170010, -0.610367, -1.170008 )     0.93994828
  WF centre and spread    3  (  0.279821, -0.279822, -1.500547 )     0.93993791
  WF centre and spread    4  ( -1.170007, -1.170009, -0.610361 )     0.93993793
  WF centre and spread    5  ( -0.610364, -1.170009, -1.170009 )     0.93993670
  WF centre and spread    6  (  1.500551,  1.500550,  1.500550 )     0.93993670
  WF centre and spread    7  ( -0.279823, -1.500548,  0.279820 )     0.93994761
  WF centre and spread    8  ( -0.610363, -0.610361, -0.610367 )     0.93994760
  Sum of centres and spreads ( -3.560745, -3.560745, -3.560745 )     7.51954098
 
    356    -0.704E-10     0.0000162859        7.5195409782       6.34  <-- CONV
        O_D=      0.0848619 O_OD=      0.9893684 O_TOT=      7.5195410 <-- SPRD
 Delta: O_D=  0.1176746E-07 O_OD= -0.1183789E-07 O_TOT= -0.7042722E-10 <-- DLTA
 ------------------------------------------------------------------------------
 Cycle:    357
  WF centre and spread    1  ( -1.500549,  0.279820, -0.279822 )     0.93994805
  WF centre and spread    2  ( -1.170010, -0.610367, -1.170008 )     0.93994809
  WF centre and spread    3  (  0.279821, -0.279822, -1.500547 )     0.93993798
  WF centre and spread    4  ( -1.170007, -1.170009, -0.610361 )     0.93993800
  WF centre and spread    5  ( -0.610364, -1.170009, -1.170009 )     0.93993676
  WF centre and spread    6  (  1.500551,  1.500550,  1.500550 )     0.93993675
  WF centre and spread    7  ( -0.279823, -1.500548,  0.279820 )     0.93994768
  WF centre and spread    8  ( -0.610363, -0.610361, -0.610367 )     0.93994767
  Sum of centres and spreads ( -3.560745, -3.560745, -3.560745 )     7.51954098
 
    357    -0.525E-10     0.0000161542        7.5195409781       6.35  <-- CONV
        O_D=      0.0848619 O_OD=      0.9893684 O_TOT=      7.5195410 <-- SPRD
 Delta: O_D=  0.1176732E-07 O_OD= -0.1181979E-07 O_TOT= -0.5246736E-10 <-- DLTA
 ------------------------------------------------------------------------------
 Cycle:    358
  WF centre and spread    1  ( -1.500549,  0.279820, -0.279822 )     0.93994787
  WF centre and spread    2  ( -1.170010, -0.610367, -1.170008 )     0.93994791
  WF centre and spread    3  (  0.279821, -0.279822, -1.500547 )     0.93993805
  WF centre and spread    4  ( -1.170007, -1.170009, -0.610361 )     0.93993807
  WF centre and spread    5  ( -0.610364, -1.170009, -1.170009 )     0.93993681
  WF centre and spread    6  (  1.500551,  1.500550,  1.500550 )     0.93993680
  WF centre and spread    7  ( -0.279823, -1.500548,  0.279820 )     0.93994774
  WF centre and spread    8  ( -0.610363, -0.610361, -0.610367 )     0.93994773
  Sum of centres and spreads ( -3.560745, -3.560745, -3.560745 )     7.51954098
 
    358    -0.319E-10     0.0000156918        7.5195409781       6.36  <-- CONV
        O_D=      0.0848620 O_OD=      0.9893684 O_TOT=      7.5195410 <-- SPRD
 Delta: O_D=  0.1141874E-07 O_OD= -0.1145068E-07 O_TOT= -0.3193978E-10 <-- DLTA
 ------------------------------------------------------------------------------
 Cycle:    359
  WF centre and spread    1  ( -1.500549,  0.279820, -0.279822 )     0.93994777
  WF centre and spread    2  ( -1.170010, -0.610367, -1.170008 )     0.93994781
  WF centre and spread    3  (  0.279821, -0.279822, -1.500547 )     0.93993809
  WF centre and spread    4  ( -1.170007, -1.170009, -0.610361 )     0.93993810
  WF centre and spread    5  ( -0.610364, -1.170009, -1.170009 )     0.93993684
  WF centre and spread    6  (  1.500551,  1.500550,  1.500550 )     0.93993683
  WF centre and spread    7  ( -0.279823, -1.500548,  0.279820 )     0.93994777
  WF centre and spread    8  ( -0.610363, -0.610361, -0.610367 )     0.93994776
  Sum of centres and spreads ( -3.560745, -3.560745, -3.560745 )     7.51954098
 
    359    -0.238E-10     0.0000150896        7.5195409781       6.38  <-- CONV
        O_D=      0.0848620 O_OD=      0.9893684 O_TOT=      7.5195410 <-- SPRD
 Delta: O_D=  0.6184784E-08 O_OD= -0.6208547E-08 O_TOT= -0.2376233E-10 <-- DLTA
 ------------------------------------------------------------------------------

             <<<     Delta < 1.000E-10  over  5 iterations     >>>
             <<< Wannierisation convergence criteria satisfied >>>

 Final State
  WF centre and spread    1  ( -1.500549,  0.279820, -0.279822 )     0.93994777
  WF centre and spread    2  ( -1.170010, -0.610367, -1.170008 )     0.93994781
  WF centre and spread    3  (  0.279821, -0.279822, -1.500547 )     0.93993809
  WF centre and spread    4  ( -1.170007, -1.170009, -0.610361 )     0.93993810
  WF centre and spread    5  ( -0.610364, -1.170009, -1.170009 )     0.93993684
  WF centre and spread    6  (  1.500551,  1.500550,  1.500550 )     0.93993683
  WF centre and spread    7  ( -0.279823, -1.500548,  0.279820 )     0.93994777
  WF centre and spread    8  ( -0.610363, -0.610361, -0.610367 )     0.93994776
  Sum of centres and spreads ( -3.560745, -3.560745, -3.560745 )     7.51954098
 
         Spreads (Ang^2)       Omega I      =     6.445310600
        ================       Omega D      =     0.084861962
                               Omega OD     =     0.989368416
    Final Spread (Ang^2)       Omega Total  =     7.519540978
 ------------------------------------------------------------------------------

 Wannier centres written to file wannier90_centres.xyz
 Time for wannierise            6.153 (sec)

 Writing checkpoint file wannier90.chk... done

 *---------------------------------------------------------------------------*
 |                               PLOTTING                                    |
 *---------------------------------------------------------------------------*
 
      Wannier Function Num:    1       Maximum Im/Re Ratio =    0.000001
      Wannier Function Num:    2       Maximum Im/Re Ratio =    0.000001
      Wannier Function Num:    3       Maximum Im/Re Ratio =    0.000001
      Wannier Function Num:    4       Maximum Im/Re Ratio =    0.000001
      Wannier Function Num:    5       Maximum Im/Re Ratio =    0.000001
      Wannier Function Num:    6       Maximum Im/Re Ratio =    0.000000
      Wannier Function Num:    7       Maximum Im/Re Ratio =    0.000000
      Wannier Function Num:    8       Maximum Im/Re Ratio =    0.000001
  
 Time for plotting            253.344 (sec)
 Total Execution Time         264.716 (sec)

 *===========================================================================*
 |                             TIMING INFORMATION                            |
 *===========================================================================*
 |    Tag                                                Ncalls      Time (s)|
 |---------------------------------------------------------------------------|
 |kmesh: get                                        :         1         2.314|
 |overlap: allocate                                 :         1         0.012|
 |overlap: read                                     :         1         2.621|
 |wann: main                                        :         1         6.153|
 |plot: main                                        :         1       253.344|
 *---------------------------------------------------------------------------*
 
 All done: wannier90 exiting
